<?xml version="1.0" encoding="UTF-8"?>

<!-- generated on Thu Jan 21 09:19:34 2021 by Eclipse SUMO GUI Version 1.6.0
<configuration xmlns:xsi="http://www.w3.org/2001/XMLSchema-instance" xsi:noNamespaceSchemaLocation="http://sumo.dlr.de/xsd/sumoConfiguration.xsd">

    <input>
        <net-file value="merge.net.xml"/>
        <route-files value="merge.rou.xml"/>
        <additional-files value="merge.add3.xml"/>
    </input>

    <output>
        <netstate-dump value="merge_output.txt"/>
        <tripinfo-output value="tripinfo.xml"/>
    </output>

    <report>
        <no-warnings value="true"/>
        <error-log value="out.txt"/>
    </report>

    <traci_server>
        <remote-port value="54388"/>
    </traci_server>

    <random_number>
        <random value="true"/>
    </random_number>

</configuration>
-->

<netstate xmlns:xsi="http://www.w3.org/2001/XMLSchema-instance" xsi:noNamespaceSchemaLocation="http://sumo.dlr.de/xsd/netstate_file.xsd">
    <timestep time="0.00">
        <edge id="e1">
            <lane id="e1_0">
                <vehicle id="5" pos="5.10" speed="15.00"/>
            </lane>
        </edge>
        <edge id="e2">
            <lane id="e2_0">
                <vehicle id="6" pos="5.10" speed="15.00"/>
            </lane>
        </edge>
        <edge id="e3">
            <lane id="e3_0">
                <vehicle id="7" pos="5.10" speed="15.00"/>
            </lane>
        </edge>
        <edge id="e4">
            <lane id="e4_0">
                <vehicle id="0" pos="5.10" speed="15.00"/>
            </lane>
        </edge>
        <edge id="e5">
            <lane id="e5_0">
                <vehicle id="1" pos="5.10" speed="15.00"/>
            </lane>
        </edge>
        <edge id="e6">
            <lane id="e6_0">
                <vehicle id="2" pos="5.10" speed="15.00"/>
            </lane>
        </edge>
        <edge id="e7">
            <lane id="e7_0">
                <vehicle id="3" pos="5.10" speed="15.00"/>
            </lane>
        </edge>
        <edge id="e8">
            <lane id="e8_0">
                <vehicle id="4" pos="5.10" speed="15.00"/>
            </lane>
        </edge>
    </timestep>
    <timestep time="1.00">
        <edge id="e1">
            <lane id="e1_0">
                <vehicle id="5" pos="21.10" speed="16.00"/>
            </lane>
        </edge>
        <edge id="e2">
            <lane id="e2_0">
                <vehicle id="6" pos="21.10" speed="16.00"/>
            </lane>
        </edge>
        <edge id="e3">
            <lane id="e3_0">
                <vehicle id="7" pos="21.10" speed="16.00"/>
            </lane>
        </edge>
        <edge id="e4">
            <lane id="e4_0">
                <vehicle id="0" pos="21.10" speed="16.00"/>
            </lane>
        </edge>
        <edge id="e5">
            <lane id="e5_0">
                <vehicle id="1" pos="21.10" speed="16.00"/>
            </lane>
        </edge>
        <edge id="e6">
            <lane id="e6_0">
                <vehicle id="2" pos="21.10" speed="16.00"/>
            </lane>
        </edge>
        <edge id="e7">
            <lane id="e7_0">
                <vehicle id="3" pos="21.10" speed="16.00"/>
            </lane>
        </edge>
        <edge id="e8">
            <lane id="e8_0">
                <vehicle id="4" pos="21.10" speed="16.00"/>
            </lane>
        </edge>
    </timestep>
    <timestep time="2.00">
        <edge id="e1">
            <lane id="e1_0">
                <vehicle id="5" pos="38.10" speed="17.00"/>
            </lane>
        </edge>
        <edge id="e2">
            <lane id="e2_0">
                <vehicle id="6" pos="38.10" speed="17.00"/>
            </lane>
        </edge>
        <edge id="e3">
            <lane id="e3_0">
                <vehicle id="7" pos="38.10" speed="17.00"/>
            </lane>
        </edge>
        <edge id="e4">
            <lane id="e4_0">
                <vehicle id="8" pos="5.10" speed="15.00"/>
                <vehicle id="0" pos="38.10" speed="17.00"/>
            </lane>
        </edge>
        <edge id="e5">
            <lane id="e5_0">
                <vehicle id="9" pos="5.10" speed="15.00"/>
                <vehicle id="1" pos="38.10" speed="17.00"/>
            </lane>
        </edge>
        <edge id="e6">
            <lane id="e6_0">
                <vehicle id="2" pos="38.10" speed="17.00"/>
            </lane>
        </edge>
        <edge id="e7">
            <lane id="e7_0">
                <vehicle id="3" pos="38.10" speed="17.00"/>
            </lane>
        </edge>
        <edge id="e8">
            <lane id="e8_0">
                <vehicle id="4" pos="38.10" speed="17.00"/>
            </lane>
        </edge>
    </timestep>
    <timestep time="3.00">
        <edge id="e1">
            <lane id="e1_0">
                <vehicle id="5" pos="56.10" speed="18.00"/>
            </lane>
        </edge>
        <edge id="e2">
            <lane id="e2_0">
                <vehicle id="6" pos="56.10" speed="18.00"/>
            </lane>
        </edge>
        <edge id="e3">
            <lane id="e3_0">
                <vehicle id="7" pos="56.10" speed="18.00"/>
            </lane>
        </edge>
        <edge id="e4">
            <lane id="e4_0">
                <vehicle id="8" pos="20.60" speed="15.50"/>
                <vehicle id="0" pos="56.10" speed="18.00"/>
            </lane>
        </edge>
        <edge id="e5">
            <lane id="e5_0">
                <vehicle id="9" pos="20.60" speed="15.50"/>
                <vehicle id="1" pos="56.10" speed="18.00"/>
            </lane>
        </edge>
        <edge id="e6">
            <lane id="e6_0">
                <vehicle id="2" pos="56.10" speed="18.00"/>
            </lane>
        </edge>
        <edge id="e7">
            <lane id="e7_0">
                <vehicle id="3" pos="56.10" speed="18.00"/>
            </lane>
        </edge>
        <edge id="e8">
            <lane id="e8_0">
                <vehicle id="4" pos="56.10" speed="18.00"/>
            </lane>
        </edge>
    </timestep>
    <timestep time="4.00">
        <edge id="e1">
            <lane id="e1_0">
                <vehicle id="5" pos="74.60" speed="18.50"/>
            </lane>
        </edge>
        <edge id="e2">
            <lane id="e2_0">
                <vehicle id="6" pos="74.60" speed="18.50"/>
            </lane>
        </edge>
        <edge id="e3">
            <lane id="e3_0">
                <vehicle id="7" pos="74.60" speed="18.50"/>
            </lane>
        </edge>
        <edge id="e4">
            <lane id="e4_0">
                <vehicle id="8" pos="36.60" speed="16.00"/>
                <vehicle id="0" pos="75.10" speed="19.00"/>
            </lane>
        </edge>
        <edge id="e5">
            <lane id="e5_0">
                <vehicle id="9" pos="36.60" speed="16.00"/>
                <vehicle id="1" pos="74.60" speed="18.50"/>
            </lane>
        </edge>
        <edge id="e6">
            <lane id="e6_0">
                <vehicle id="2" pos="74.60" speed="18.50"/>
            </lane>
        </edge>
        <edge id="e7">
            <lane id="e7_0">
                <vehicle id="3" pos="74.60" speed="18.50"/>
            </lane>
        </edge>
        <edge id="e8">
            <lane id="e8_0">
                <vehicle id="4" pos="75.10" speed="19.00"/>
            </lane>
        </edge>
    </timestep>
    <timestep time="5.00">
        <edge id="e1">
            <lane id="e1_0">
                <vehicle id="5" pos="93.60" speed="19.00"/>
            </lane>
        </edge>
        <edge id="e2">
            <lane id="e2_0">
                <vehicle id="6" pos="93.60" speed="19.00"/>
            </lane>
        </edge>
        <edge id="e3">
            <lane id="e3_0">
                <vehicle id="7" pos="93.60" speed="19.00"/>
            </lane>
        </edge>
        <edge id="e4">
            <lane id="e4_0">
                <vehicle id="8" pos="53.10" speed="16.50"/>
                <vehicle id="0" pos="95.10" speed="20.00"/>
            </lane>
        </edge>
        <edge id="e5">
            <lane id="e5_0">
                <vehicle id="9" pos="53.10" speed="16.50"/>
                <vehicle id="1" pos="93.60" speed="19.00"/>
            </lane>
        </edge>
        <edge id="e6">
            <lane id="e6_0">
                <vehicle id="2" pos="93.60" speed="19.00"/>
            </lane>
        </edge>
        <edge id="e7">
            <lane id="e7_0">
                <vehicle id="3" pos="93.60" speed="19.00"/>
            </lane>
        </edge>
        <edge id="e8">
            <lane id="e8_0">
                <vehicle id="4" pos="95.10" speed="20.00"/>
            </lane>
        </edge>
    </timestep>
    <timestep time="6.00">
        <edge id="e2">
            <lane id="e2_0">
                <vehicle id="5" pos="2.95" speed="19.50"/>
            </lane>
        </edge>
        <edge id="e3">
            <lane id="e3_0">
                <vehicle id="6" pos="11.25" speed="19.50"/>
            </lane>
        </edge>
        <edge id="e4">
            <lane id="e4_0">
                <vehicle id="7" pos="0.63" speed="19.50"/>
                <vehicle id="8" pos="70.10" speed="17.00"/>
                <vehicle id="0" pos="116.10" speed="21.00"/>
            </lane>
        </edge>
        <edge id="e5">
            <lane id="e5_0">
                <vehicle id="9" pos="70.10" speed="17.00"/>
            </lane>
        </edge>
        <edge id="e6">
            <lane id="e6_0">
                <vehicle id="1" pos="11.40" speed="19.50"/>
            </lane>
        </edge>
        <edge id="e7">
            <lane id="e7_0">
                <vehicle id="2" pos="11.16" speed="19.50"/>
            </lane>
        </edge>
        <edge id="e8">
            <lane id="e8_0">
                <vehicle id="3" pos="12.20" speed="19.50"/>
                <vehicle id="4" pos="116.10" speed="21.00"/>
            </lane>
        </edge>
    </timestep>
    <timestep time="7.00">
        <edge id="e2">
            <lane id="e2_0">
                <vehicle id="5" pos="23.45" speed="20.50"/>
            </lane>
        </edge>
        <edge id="e3">
            <lane id="e3_0">
                <vehicle id="6" pos="31.75" speed="20.50"/>
            </lane>
        </edge>
        <edge id="e4">
            <lane id="e4_0">
                <vehicle id="7" pos="20.63" speed="20.00"/>
                <vehicle id="8" pos="87.60" speed="17.50"/>
                <vehicle id="0" pos="138.10" speed="22.00"/>
            </lane>
        </edge>
        <edge id="e5">
            <lane id="e5_0">
                <vehicle id="9" pos="87.60" speed="17.50"/>
            </lane>
        </edge>
        <edge id="e6">
            <lane id="e6_0">
                <vehicle id="1" pos="31.90" speed="20.50"/>
            </lane>
        </edge>
        <edge id="e7">
            <lane id="e7_0">
                <vehicle id="2" pos="31.66" speed="20.50"/>
            </lane>
        </edge>
        <edge id="e8">
            <lane id="e8_0">
                <vehicle id="3" pos="32.20" speed="20.00"/>
                <vehicle id="4" pos="138.10" speed="22.00"/>
            </lane>
        </edge>
    </timestep>
    <timestep time="8.00">
        <edge id="e2">
            <lane id="e2_0">
                <vehicle id="5" pos="44.95" speed="21.50"/>
            </lane>
        </edge>
        <edge id="e3">
            <lane id="e3_0">
                <vehicle id="6" pos="53.25" speed="21.50"/>
            </lane>
        </edge>
        <edge id="e4">
            <lane id="e4_0">
                <vehicle id="7" pos="41.13" speed="20.50"/>
                <vehicle id="8" pos="105.60" speed="18.00"/>
                <vehicle id="0" pos="161.10" speed="23.00"/>
            </lane>
        </edge>
        <edge id="e6">
            <lane id="e6_0">
                <vehicle id="9" pos="3.90" speed="18.00"/>
                <vehicle id="1" pos="53.40" speed="21.50"/>
            </lane>
        </edge>
        <edge id="e7">
            <lane id="e7_0">
                <vehicle id="2" pos="53.16" speed="21.50"/>
            </lane>
        </edge>
        <edge id="e8">
            <lane id="e8_0">
                <vehicle id="3" pos="52.70" speed="20.50"/>
                <vehicle id="4" pos="161.10" speed="23.00"/>
            </lane>
        </edge>
    </timestep>
    <timestep time="9.00">
        <edge id="e2">
            <lane id="e2_0">
                <vehicle id="5" pos="66.95" speed="22.00"/>
            </lane>
        </edge>
        <edge id="e3">
            <lane id="e3_0">
                <vehicle id="6" pos="75.25" speed="22.00"/>
            </lane>
        </edge>
        <edge id="e4">
            <lane id="e4_0">
                <vehicle id="7" pos="62.13" speed="21.00"/>
                <vehicle id="8" pos="124.10" speed="18.50"/>
                <vehicle id="0" pos="185.10" speed="24.00"/>
            </lane>
        </edge>
        <edge id="e6">
            <lane id="e6_0">
                <vehicle id="9" pos="22.40" speed="18.50"/>
                <vehicle id="1" pos="75.40" speed="22.00"/>
            </lane>
        </edge>
        <edge id="e7">
            <lane id="e7_0">
                <vehicle id="2" pos="75.16" speed="22.00"/>
            </lane>
        </edge>
        <edge id="e8">
            <lane id="e8_0">
                <vehicle id="3" pos="73.70" speed="21.00"/>
                <vehicle id="4" pos="185.10" speed="24.00"/>
            </lane>
        </edge>
    </timestep>
    <timestep time="10.00">
        <edge id="e2">
            <lane id="e2_0">
                <vehicle id="5" pos="89.45" speed="22.50"/>
            </lane>
        </edge>
        <edge id="e3">
            <lane id="e3_0">
                <vehicle id="6" pos="97.75" speed="22.50"/>
            </lane>
        </edge>
        <edge id="e4">
            <lane id="e4_0">
                <vehicle id="7" pos="83.63" speed="21.50"/>
                <vehicle id="8" pos="143.10" speed="19.00"/>
                <vehicle id="0" pos="210.10" speed="25.00"/>
            </lane>
        </edge>
        <edge id="e6">
            <lane id="e6_0">
                <vehicle id="9" pos="41.40" speed="19.00"/>
                <vehicle id="1" pos="97.90" speed="22.50"/>
            </lane>
        </edge>
        <edge id="e7">
            <lane id="e7_0">
                <vehicle id="2" pos="97.66" speed="22.50"/>
            </lane>
        </edge>
        <edge id="e8">
            <lane id="e8_0">
                <vehicle id="3" pos="95.20" speed="21.50"/>
                <vehicle id="4" pos="210.10" speed="25.00"/>
            </lane>
        </edge>
    </timestep>
    <timestep time="11.00">
        <edge id="e3">
            <lane id="e3_0">
                <vehicle id="5" pos="10.60" speed="23.00"/>
            </lane>
        </edge>
        <edge id="e4">
            <lane id="e4_0">
                <vehicle id="6" pos="8.28" speed="23.00"/>
                <vehicle id="7" pos="105.63" speed="22.00"/>
                <vehicle id="8" pos="162.60" speed="19.50"/>
                <vehicle id="0" pos="236.10" speed="26.00"/>
            </lane>
        </edge>
        <edge id="e6">
            <lane id="e6_0">
                <vehicle id="9" pos="60.90" speed="19.50"/>
            </lane>
        </edge>
        <edge id="e7">
            <lane id="e7_0">
                <vehicle id="1" pos="18.96" speed="23.00"/>
            </lane>
        </edge>
        <edge id="e8">
            <lane id="e8_0">
                <vehicle id="2" pos="19.76" speed="23.00"/>
                <vehicle id="3" pos="117.20" speed="22.00"/>
                <vehicle id="4" pos="236.10" speed="26.00"/>
            </lane>
        </edge>
    </timestep>
    <timestep time="12.00">
        <edge id="e3">
            <lane id="e3_0">
                <vehicle id="5" pos="34.60" speed="24.00"/>
            </lane>
        </edge>
        <edge id="e4">
            <lane id="e4_0">
                <vehicle id="6" pos="31.78" speed="23.50"/>
                <vehicle id="7" pos="128.13" speed="22.50"/>
                <vehicle id="8" pos="182.60" speed="20.00"/>
                <vehicle id="0" pos="263.10" speed="27.00"/>
            </lane>
        </edge>
        <edge id="e6">
            <lane id="e6_0">
                <vehicle id="9" pos="80.90" speed="20.00"/>
            </lane>
        </edge>
        <edge id="e7">
            <lane id="e7_0">
                <vehicle id="1" pos="42.96" speed="24.00"/>
            </lane>
        </edge>
        <edge id="e8">
            <lane id="e8_0">
                <vehicle id="2" pos="43.26" speed="23.50"/>
                <vehicle id="3" pos="139.70" speed="22.50"/>
                <vehicle id="4" pos="263.10" speed="27.00"/>
            </lane>
        </edge>
    </timestep>
    <timestep time="13.00">
        <edge id=":gneJ12_0">
            <lane id=":gneJ12_0_0">
                <vehicle id="9" pos="0.90" speed="20.50"/>
            </lane>
        </edge>
        <edge id="e3">
            <lane id="e3_0">
                <vehicle id="5" pos="59.10" speed="24.50"/>
            </lane>
        </edge>
        <edge id="e4">
            <lane id="e4_0">
                <vehicle id="6" pos="55.78" speed="24.00"/>
                <vehicle id="7" pos="151.13" speed="23.00"/>
                <vehicle id="8" pos="203.10" speed="20.50"/>
                <vehicle id="0" pos="291.10" speed="28.00"/>
            </lane>
        </edge>
        <edge id="e7">
            <lane id="e7_0">
                <vehicle id="1" pos="67.46" speed="24.50"/>
            </lane>
        </edge>
        <edge id="e8">
            <lane id="e8_0">
                <vehicle id="2" pos="67.26" speed="24.00"/>
                <vehicle id="3" pos="162.70" speed="23.00"/>
                <vehicle id="4" pos="291.10" speed="28.00"/>
            </lane>
        </edge>
    </timestep>
    <timestep time="14.00">
        <edge id="e3">
            <lane id="e3_0">
                <vehicle id="5" pos="84.10" speed="25.00"/>
            </lane>
        </edge>
        <edge id="e4">
            <lane id="e4_0">
                <vehicle id="6" pos="80.28" speed="24.50"/>
                <vehicle id="7" pos="174.63" speed="23.50"/>
                <vehicle id="8" pos="224.10" speed="21.00"/>
                <vehicle id="0" pos="320.10" speed="29.00"/>
            </lane>
        </edge>
        <edge id="e7">
            <lane id="e7_0">
                <vehicle id="9" pos="20.46" speed="21.00"/>
                <vehicle id="1" pos="92.46" speed="25.00"/>
            </lane>
        </edge>
        <edge id="e8">
            <lane id="e8_0">
                <vehicle id="2" pos="91.76" speed="24.50"/>
                <vehicle id="3" pos="186.20" speed="23.50"/>
                <vehicle id="4" pos="320.10" speed="29.00"/>
            </lane>
        </edge>
    </timestep>
    <timestep time="15.00">
        <edge id=":gneJ9_1">
            <lane id=":gneJ9_1_0">
                <vehicle id="5" pos="9.60" speed="25.50"/>
            </lane>
        </edge>
        <edge id="e4">
            <lane id="e4_0">
                <vehicle id="6" pos="105.28" speed="25.00"/>
                <vehicle id="7" pos="198.63" speed="24.00"/>
                <vehicle id="8" pos="245.60" speed="21.50"/>
                <vehicle id="0" pos="350.10" speed="30.00"/>
            </lane>
        </edge>
        <edge id="e7">
            <lane id="e7_0">
                <vehicle id="9" pos="41.96" speed="21.50"/>
            </lane>
        </edge>
        <edge id="e8">
            <lane id="e8_0">
                <vehicle id="1" pos="17.06" speed="25.50"/>
                <vehicle id="2" pos="116.76" speed="25.00"/>
                <vehicle id="3" pos="210.20" speed="24.00"/>
                <vehicle id="4" pos="350.10" speed="30.00"/>
            </lane>
        </edge>
    </timestep>
    <timestep time="16.00">
        <edge id="e4">
            <lane id="e4_0">
                <vehicle id="5" pos="22.13" speed="25.00"/>
                <vehicle id="6" pos="130.78" speed="25.50"/>
                <vehicle id="7" pos="223.13" speed="24.50"/>
                <vehicle id="8" pos="267.60" speed="22.00"/>
                <vehicle id="0" pos="381.10" speed="31.00"/>
            </lane>
        </edge>
        <edge id="e7">
            <lane id="e7_0">
                <vehicle id="9" pos="63.96" speed="22.00"/>
            </lane>
        </edge>
        <edge id="e8">
            <lane id="e8_0">
                <vehicle id="1" pos="43.06" speed="26.00"/>
                <vehicle id="2" pos="142.26" speed="25.50"/>
                <vehicle id="3" pos="234.70" speed="24.50"/>
                <vehicle id="4" pos="381.10" speed="31.00"/>
            </lane>
        </edge>
    </timestep>
    <timestep time="17.00">
        <edge id="e4">
            <lane id="e4_0">
                <vehicle id="5" pos="47.63" speed="25.50"/>
                <vehicle id="6" pos="156.78" speed="26.00"/>
                <vehicle id="7" pos="248.13" speed="25.00"/>
                <vehicle id="8" pos="290.10" speed="22.50"/>
                <vehicle id="0" pos="410.24" speed="29.14"/>
            </lane>
        </edge>
        <edge id="e7">
            <lane id="e7_0">
                <vehicle id="9" pos="86.46" speed="22.50"/>
            </lane>
        </edge>
        <edge id="e8">
            <lane id="e8_0">
                <vehicle id="1" pos="69.56" speed="26.50"/>
                <vehicle id="2" pos="168.26" speed="26.00"/>
                <vehicle id="3" pos="259.70" speed="25.00"/>
                <vehicle id="4" pos="407.60" speed="26.50"/>
            </lane>
        </edge>
    </timestep>
    <timestep time="18.00">
        <edge id="e4">
            <lane id="e4_0">
                <vehicle id="5" pos="73.63" speed="26.00"/>
                <vehicle id="6" pos="183.28" speed="26.50"/>
                <vehicle id="7" pos="273.63" speed="25.50"/>
                <vehicle id="8" pos="313.10" speed="23.00"/>
                <vehicle id="0" pos="440.39" speed="30.14"/>
            </lane>
        </edge>
        <edge id="e8">
            <lane id="e8_0">
                <vehicle id="9" pos="8.56" speed="23.00"/>
                <vehicle id="1" pos="96.56" speed="27.00"/>
                <vehicle id="2" pos="194.76" speed="26.50"/>
                <vehicle id="3" pos="285.20" speed="25.50"/>
                <vehicle id="4" pos="435.10" speed="27.50"/>
            </lane>
        </edge>
    </timestep>
    <timestep time="19.00">
        <edge id="e4">
            <lane id="e4_0">
                <vehicle id="5" pos="100.13" speed="26.50"/>
                <vehicle id="6" pos="210.28" speed="27.00"/>
                <vehicle id="7" pos="299.63" speed="26.00"/>
                <vehicle id="8" pos="336.60" speed="23.50"/>
                <vehicle id="0" pos="471.53" speed="31.14"/>
            </lane>
        </edge>
        <edge id="e8">
            <lane id="e8_0">
                <vehicle id="9" pos="32.06" speed="23.50"/>
                <vehicle id="1" pos="124.06" speed="27.50"/>
                <vehicle id="2" pos="221.76" speed="27.00"/>
                <vehicle id="3" pos="311.20" speed="26.00"/>
                <vehicle id="4" pos="463.60" speed="28.50"/>
            </lane>
        </edge>
    </timestep>
    <timestep time="20.00">
        <edge id="e4">
            <lane id="e4_0">
                <vehicle id="5" pos="127.13" speed="27.00"/>
                <vehicle id="6" pos="237.78" speed="27.50"/>
                <vehicle id="7" pos="326.13" speed="26.50"/>
                <vehicle id="8" pos="360.60" speed="24.00"/>
                <vehicle id="0" pos="500.23" speed="28.70"/>
            </lane>
        </edge>
        <edge id="e8">
            <lane id="e8_0">
                <vehicle id="9" pos="56.06" speed="24.00"/>
                <vehicle id="1" pos="152.06" speed="28.00"/>
                <vehicle id="2" pos="249.26" speed="27.50"/>
                <vehicle id="3" pos="337.70" speed="26.50"/>
                <vehicle id="4" pos="493.10" speed="29.50"/>
            </lane>
        </edge>
    </timestep>
    <timestep time="21.00">
        <edge id="e4">
            <lane id="e4_0">
                <vehicle id="5" pos="154.63" speed="27.50"/>
                <vehicle id="6" pos="265.78" speed="28.00"/>
                <vehicle id="7" pos="353.13" speed="27.00"/>
                <vehicle id="8" pos="385.10" speed="24.50"/>
                <vehicle id="0" pos="529.93" speed="29.70"/>
            </lane>
        </edge>
        <edge id="e8">
            <lane id="e8_0">
                <vehicle id="9" pos="80.56" speed="24.50"/>
                <vehicle id="1" pos="180.56" speed="28.50"/>
                <vehicle id="2" pos="277.26" speed="28.00"/>
                <vehicle id="3" pos="364.70" speed="27.00"/>
                <vehicle id="4" pos="523.60" speed="30.50"/>
            </lane>
        </edge>
    </timestep>
    <timestep time="22.00">
        <edge id="e4">
            <lane id="e4_0">
                <vehicle id="5" pos="182.63" speed="28.00"/>
                <vehicle id="6" pos="294.28" speed="28.50"/>
                <vehicle id="7" pos="380.63" speed="27.50"/>
                <vehicle id="8" pos="410.10" speed="25.00"/>
                <vehicle id="0" pos="560.62" speed="30.70"/>
            </lane>
        </edge>
        <edge id="e8">
            <lane id="e8_0">
                <vehicle id="9" pos="105.56" speed="25.00"/>
                <vehicle id="1" pos="209.56" speed="29.00"/>
                <vehicle id="2" pos="305.76" speed="28.50"/>
                <vehicle id="3" pos="392.20" speed="27.50"/>
                <vehicle id="4" pos="555.10" speed="31.50"/>
            </lane>
        </edge>
    </timestep>
    <timestep time="23.00">
        <edge id="e4">
            <lane id="e4_0">
                <vehicle id="5" pos="211.13" speed="28.50"/>
                <vehicle id="6" pos="323.28" speed="29.00"/>
                <vehicle id="7" pos="408.63" speed="28.00"/>
                <vehicle id="8" pos="435.60" speed="25.50"/>
                <vehicle id="0" pos="592.32" speed="31.70"/>
            </lane>
        </edge>
        <edge id="e8">
            <lane id="e8_0">
                <vehicle id="9" pos="131.06" speed="25.50"/>
                <vehicle id="1" pos="239.06" speed="29.50"/>
                <vehicle id="2" pos="334.76" speed="29.00"/>
                <vehicle id="3" pos="420.20" speed="28.00"/>
                <vehicle id="4" pos="582.10" speed="27.00"/>
            </lane>
        </edge>
    </timestep>
    <timestep time="24.00">
        <edge id="e4">
            <lane id="e4_0">
                <vehicle id="5" pos="240.13" speed="29.00"/>
                <vehicle id="6" pos="352.78" speed="29.50"/>
                <vehicle id="7" pos="437.13" speed="28.50"/>
                <vehicle id="8" pos="461.60" speed="26.00"/>
                <vehicle id="0" pos="620.69" speed="28.37"/>
            </lane>
        </edge>
        <edge id="e8">
            <lane id="e8_0">
                <vehicle id="9" pos="157.06" speed="26.00"/>
                <vehicle id="1" pos="269.06" speed="30.00"/>
                <vehicle id="2" pos="364.26" speed="29.50"/>
                <vehicle id="3" pos="448.70" speed="28.50"/>
                <vehicle id="4" pos="610.10" speed="28.00"/>
            </lane>
        </edge>
    </timestep>
    <timestep time="25.00">
        <edge id="e4">
            <lane id="e4_0">
                <vehicle id="5" pos="269.63" speed="29.50"/>
                <vehicle id="6" pos="382.78" speed="30.00"/>
                <vehicle id="7" pos="466.13" speed="29.00"/>
                <vehicle id="8" pos="488.10" speed="26.50"/>
                <vehicle id="0" pos="650.06" speed="29.37"/>
            </lane>
        </edge>
        <edge id="e8">
            <lane id="e8_0">
                <vehicle id="9" pos="183.56" speed="26.50"/>
                <vehicle id="1" pos="298.56" speed="29.50"/>
                <vehicle id="2" pos="394.26" speed="30.00"/>
                <vehicle id="3" pos="477.70" speed="29.00"/>
                <vehicle id="4" pos="639.10" speed="29.00"/>
            </lane>
        </edge>
    </timestep>
    <timestep time="26.00">
        <edge id="e4">
            <lane id="e4_0">
                <vehicle id="5" pos="299.63" speed="30.00"/>
                <vehicle id="6" pos="412.28" speed="29.50"/>
                <vehicle id="7" pos="495.63" speed="29.50"/>
                <vehicle id="8" pos="515.10" speed="27.00"/>
                <vehicle id="0" pos="680.43" speed="30.37"/>
            </lane>
        </edge>
        <edge id="e8">
            <lane id="e8_0">
                <vehicle id="9" pos="210.56" speed="27.00"/>
                <vehicle id="1" pos="328.56" speed="30.00"/>
                <vehicle id="2" pos="423.76" speed="29.50"/>
                <vehicle id="3" pos="507.20" speed="29.50"/>
                <vehicle id="4" pos="669.10" speed="30.00"/>
            </lane>
        </edge>
    </timestep>
    <timestep time="27.00">
        <edge id="e4">
            <lane id="e4_0">
                <vehicle id="5" pos="329.13" speed="29.50"/>
                <vehicle id="6" pos="442.28" speed="30.00"/>
                <vehicle id="7" pos="523.38" speed="27.75"/>
                <vehicle id="8" pos="542.60" speed="27.50"/>
                <vehicle id="0" pos="711.80" speed="31.37"/>
            </lane>
        </edge>
        <edge id="e8">
            <lane id="e8_0">
                <vehicle id="9" pos="238.06" speed="27.50"/>