<?xml version="1.0" encoding="UTF-8"?>

<!-- generated on Wed Apr 14 17:39:34 2021 by Eclipse SUMO Version 1.6.0
<configuration xmlns:xsi="http://www.w3.org/2001/XMLSchema-instance" xsi:noNamespaceSchemaLocation="http://sumo.dlr.de/xsd/sumoConfiguration.xsd">

    <input>
        <net-file value="lateral_merge.net.xml"/>
        <route-files value="lateral_merge.rou.xml"/>
        <additional-files value="lateral_merge.add.xml"/>
    </input>

    <output>
        <netstate-dump value="lateral_merge_output.txt"/>
        <tripinfo-output value="tripinfo.xml"/>
    </output>

    <report>
        <no-warnings value="true"/>
        <error-log value="out.txt"/>
    </report>

    <traci_server>
        <remote-port value="54792"/>
    </traci_server>

    <random_number>
        <random value="true"/>
    </random_number>

</configuration>
-->

<netstate xmlns:xsi="http://www.w3.org/2001/XMLSchema-instance" xsi:noNamespaceSchemaLocation="http://sumo.dlr.de/xsd/netstate_file.xsd">
    <timestep time="0.00">
        <edge id="e1">
            <lane id="e1_0">
                <vehicle id="5" pos="5.10" speed="15.00"/>
            </lane>
            <lane id="e1_1"/>
        </edge>
        <edge id="e2">
            <lane id="e2_0">
                <vehicle id="6" pos="5.10" speed="15.00"/>
            </lane>
        </edge>
        <edge id="e3">
            <lane id="e3_0">
                <vehicle id="7" pos="5.10" speed="15.00"/>
            </lane>
        </edge>
        <edge id="e4">
            <lane id="e4_0">
                <vehicle id="0" pos="5.10" speed="15.00"/>
            </lane>
        </edge>
        <edge id="e5">
            <lane id="e5_0">
                <vehicle id="1" pos="5.10" speed="15.00"/>
            </lane>
        </edge>
        <edge id="e6">
            <lane id="e6_0">
                <vehicle id="2" pos="5.10" speed="15.00"/>
            </lane>
        </edge>
        <edge id="e7">
            <lane id="e7_0">
                <vehicle id="3" pos="5.10" speed="15.00"/>
            </lane>
        </edge>
        <edge id="e8">
            <lane id="e8_0">
                <vehicle id="4" pos="5.10" speed="15.00"/>
            </lane>
        </edge>
        <edge id="e9">
            <lane id="e9_0">
                <vehicle id="8" pos="5.10" speed="15.00"/>
            </lane>
        </edge>
    </timestep>
    <timestep time="1.00">
        <edge id="e1">
            <lane id="e1_0">
                <vehicle id="9" pos="5.10" speed="15.00"/>
            </lane>
            <lane id="e1_1">
                <vehicle id="5" pos="21.10" speed="16.00"/>
            </lane>
        </edge>
        <edge id="e2">
            <lane id="e2_0">
                <vehicle id="6" pos="21.10" speed="16.00"/>
            </lane>
        </edge>
        <edge id="e3">
            <lane id="e3_0">
                <vehicle id="7" pos="21.10" speed="16.00"/>
            </lane>
        </edge>
        <edge id="e4">
            <lane id="e4_0">
                <vehicle id="0" pos="21.10" speed="16.00"/>
            </lane>
        </edge>
        <edge id="e5">
            <lane id="e5_0">
                <vehicle id="1" pos="21.10" speed="16.00"/>
            </lane>
        </edge>
        <edge id="e6">
            <lane id="e6_0">
                <vehicle id="2" pos="21.10" speed="16.00"/>
            </lane>
        </edge>
        <edge id="e7">
            <lane id="e7_0">
                <vehicle id="3" pos="21.10" speed="16.00"/>
            </lane>
        </edge>
        <edge id="e8">
            <lane id="e8_0">
                <vehicle id="4" pos="21.10" speed="16.00"/>
            </lane>
        </edge>
        <edge id="e9">
            <lane id="e9_0">
                <vehicle id="8" pos="21.10" speed="16.00"/>
            </lane>
        </edge>
    </timestep>
    <timestep time="2.00">
        <edge id="e1">
            <lane id="e1_0"/>
            <lane id="e1_1">
                <vehicle id="9" pos="20.93" speed="15.83"/>
                <vehicle id="5" pos="38.11" speed="17.00"/>
            </lane>
        </edge>
        <edge id="e2">
            <lane id="e2_0">
                <vehicle id="6" pos="38.59" speed="17.48"/>
            </lane>
        </edge>
        <edge id="e3">
            <lane id="e3_0">
                <vehicle id="7" pos="38.59" speed="17.48"/>
            </lane>
        </edge>
        <edge id="e4">
            <lane id="e4_0">
                <vehicle id="0" pos="38.59" speed="17.48"/>
            </lane>
        </edge>
        <edge id="e5">
            <lane id="e5_0">
                <vehicle id="1" pos="38.59" speed="17.48"/>
            </lane>
        </edge>
        <edge id="e6">
            <lane id="e6_0">
                <vehicle id="2" pos="38.59" speed="17.48"/>
            </lane>
        </edge>
        <edge id="e7">
            <lane id="e7_0">
                <vehicle id="3" pos="38.59" speed="17.48"/>
            </lane>
        </edge>
        <edge id="e8">
            <lane id="e8_0">
                <vehicle id="4" pos="38.59" speed="17.48"/>
            </lane>
        </edge>
        <edge id="e9">
            <lane id="e9_0">
                <vehicle id="8" pos="38.59" speed="17.48"/>
            </lane>
        </edge>
    </timestep>
    <timestep time="3.00">
        <edge id="e1">
            <lane id="e1_0"/>
            <lane id="e1_1">
                <vehicle id="9" pos="37.58" speed="16.65"/>
                <vehicle id="5" pos="57.15" speed="19.04"/>
            </lane>
        </edge>
        <edge id="e2">
            <lane id="e2_0">
                <vehicle id="6" pos="57.42" speed="18.83"/>
            </lane>
        </edge>
        <edge id="e3">
            <lane id="e3_0">
                <vehicle id="7" pos="57.42" speed="18.83"/>
            </lane>
        </edge>
        <edge id="e4">
            <lane id="e4_0">
                <vehicle id="0" pos="57.42" speed="18.83"/>
            </lane>
        </edge>
        <edge id="e5">
            <lane id="e5_0">
                <vehicle id="1" pos="57.42" speed="18.83"/>
            </lane>
        </edge>
        <edge id="e6">
            <lane id="e6_0">
                <vehicle id="2" pos="57.42" speed="18.83"/>
            </lane>
        </edge>
        <edge id="e7">
            <lane id="e7_0">
                <vehicle id="3" pos="57.42" speed="18.83"/>
            </lane>
        </edge>
        <edge id="e8">
            <lane id="e8_0">
                <vehicle id="4" pos="57.42" speed="18.83"/>
            </lane>
        </edge>
        <edge id="e9">
            <lane id="e9_0">
                <vehicle id="8" pos="57.42" speed="18.83"/>
            </lane>
        </edge>
    </timestep>
    <timestep time="4.00">
        <edge id="e1">
            <lane id="e1_0"/>
            <lane id="e1_1">
                <vehicle id="9" pos="55.06" speed="17.48"/>
                <vehicle id="5" pos="76.93" speed="19.78"/>
            </lane>
        </edge>
        <edge id="e2">
            <lane id="e2_0">
                <vehicle id="6" pos="76.99" speed="19.57"/>
            </lane>
        </edge>
        <edge id="e3">
            <lane id="e3_0">
                <vehicle id="7" pos="76.99" speed="19.57"/>
            </lane>
        </edge>
        <edge id="e4">
            <lane id="e4_0">
                <vehicle id="0" pos="76.99" speed="19.57"/>
            </lane>
        </edge>
        <edge id="e5">
            <lane id="e5_0">
                <vehicle id="1" pos="76.99" speed="19.57"/>
            </lane>
        </edge>
        <edge id="e6">
            <lane id="e6_0">
                <vehicle id="2" pos="76.99" speed="19.57"/>
            </lane>
        </edge>
        <edge id="e7">
            <lane id="e7_0">
                <vehicle id="3" pos="76.99" speed="19.57"/>
            </lane>
        </edge>
        <edge id="e8">
            <lane id="e8_0">
                <vehicle id="4" pos="76.99" speed="19.57"/>
            </lane>
        </edge>
        <edge id="e9">
            <lane id="e9_0">
                <vehicle id="8" pos="76.99" speed="19.57"/>
            </lane>
        </edge>
    </timestep>
    <timestep time="5.00">
        <edge id="e1">
            <lane id="e1_0"/>
            <lane id="e1_1">
                <vehicle id="9" pos="73.36" speed="18.30"/>
                <vehicle id="5" pos="98.71" speed="21.78"/>
            </lane>
        </edge>
        <edge id="e2">
            <lane id="e2_0">
                <vehicle id="6" pos="98.33" speed="21.34"/>
            </lane>
        </edge>
        <edge id="e3">
            <lane id="e3_0">
                <vehicle id="7" pos="98.33" speed="21.34"/>
            </lane>
        </edge>
        <edge id="e4">
            <lane id="e4_0">
                <vehicle id="0" pos="98.33" speed="21.34"/>
            </lane>
        </edge>
        <edge id="e5">
            <lane id="e5_0">
                <vehicle id="1" pos="98.33" speed="21.34"/>
            </lane>
        </edge>
        <edge id="e6">
            <lane id="e6_0">
                <vehicle id="2" pos="98.33" speed="21.34"/>
            </lane>
        </edge>
        <edge id="e7">
            <lane id="e7_0">
                <vehicle id="3" pos="98.33" speed="21.34"/>
            </lane>
        </edge>
        <edge id="e8">
            <lane id="e8_0">
                <vehicle id="4" pos="98.33" speed="21.34"/>
            </lane>
        </edge>
        <edge id="e9">
            <lane id="e9_0">
                <vehicle id="8" pos="98.33" speed="21.34"/>
            </lane>
        </edge>
    </timestep>
    <timestep time="6.00">
        <edge id="e1">
            <lane id="e1_0"/>
            <lane id="e1_1">
                <vehicle id="9" pos="93.23" speed="19.87"/>
                <vehicle id="5" pos="121.45" speed="22.74"/>
            </lane>
        </edge>
        <edge id="e2">
            <lane id="e2_0">
                <vehicle id="6" pos="121.67" speed="23.34"/>
            </lane>
        </edge>
        <edge id="e3">
            <lane id="e3_0">
                <vehicle id="7" pos="121.67" speed="23.34"/>
            </lane>
        </edge>
        <edge id="e4">
            <lane id="e4_0">
                <vehicle id="0" pos="121.67" speed="23.34"/>
            </lane>
        </edge>
        <edge id="e5">
            <lane id="e5_0">
                <vehicle id="1" pos="121.67" speed="23.34"/>
            </lane>
        </edge>
        <edge id="e6">
            <lane id="e6_0">
                <vehicle id="2" pos="121.67" speed="23.34"/>
            </lane>
        </edge>
        <edge id="e7">
            <lane id="e7_0">
                <vehicle id="3" pos="121.67" speed="23.34"/>
            </lane>
        </edge>
        <edge id="e8">
            <lane id="e8_0">
                <vehicle id="4" pos="121.67" speed="23.34"/>
            </lane>
        </edge>
        <edge id="e9">
            <lane id="e9_0">
                <vehicle id="8" pos="121.67" speed="23.34"/>
            </lane>
        </edge>
    </timestep>
    <timestep time="7.00">
        <edge id="e1">
            <lane id="e1_0"/>
            <lane id="e1_1">
                <vehicle id="9" pos="114.66" speed="21.43"/>
                <vehicle id="5" pos="144.87" speed="23.42"/>
            </lane>
        </edge>
        <edge id="e2">
            <lane id="e2_0">
                <vehicle id="6" pos="146.37" speed="24.70"/>
            </lane>
        </edge>
        <edge id="e3">
            <lane id="e3_0">
                <vehicle id="7" pos="146.37" speed="24.70"/>
            </lane>
        </edge>
        <edge id="e4">
            <lane id="e4_0">
                <vehicle id="0" pos="146.37" speed="24.70"/>
            </lane>
        </edge>
        <edge id="e5">
            <lane id="e5_0">
                <vehicle id="1" pos="146.37" speed="24.70"/>
            </lane>
        </edge>
        <edge id="e6">
            <lane id="e6_0">
                <vehicle id="2" pos="146.37" speed="24.70"/>
            </lane>
        </edge>
        <edge id="e7">
            <lane id="e7_0">
                <vehicle id="3" pos="146.37" speed="24.70"/>
            </lane>
        </edge>
        <edge id="e8">
            <lane id="e8_0">
                <vehicle id="4" pos="146.37" speed="24.70"/>
            </lane>
        </edge>
        <edge id="e9">
            <lane id="e9_0">
                <vehicle id="8" pos="146.37" speed="24.70"/>
            </lane>
        </edge>
    </timestep>
    <timestep time="8.00">
        <edge id="e1">
            <lane id="e1_0"/>
            <lane id="e1_1">
                <vehicle id="9" pos="137.66" speed="23.00"/>
                <vehicle id="5" pos="168.71" speed="23.84"/>
            </lane>
        </edge>
        <edge id="e2">
            <lane id="e2_0">
                <vehicle id="6" pos="172.04" speed="25.67"/>
            </lane>
        </edge>
        <edge id="e3">
            <lane id="e3_0">
                <vehicle id="7" pos="171.43" speed="25.06"/>
            </lane>
        </edge>
        <edge id="e4">
            <lane id="e4_0">
                <vehicle id="0" pos="172.04" speed="25.67"/>
            </lane>
        </edge>
        <edge id="e5">
            <lane id="e5_0">
                <vehicle id="1" pos="172.04" speed="25.67"/>
            </lane>
        </edge>
        <edge id="e6">
            <lane id="e6_0">
                <vehicle id="2" pos="172.04" speed="25.67"/>
            </lane>
        </edge>
        <edge id="e7">
            <lane id="e7_0">
                <vehicle id="3" pos="172.04" speed="25.67"/>
            </lane>
        </edge>
        <edge id="e8">
            <lane id="e8_0">
                <vehicle id="4" pos="172.04" speed="25.67"/>
            </lane>
        </edge>
        <edge id="e9">
            <lane id="e9_0">
                <vehicle id="8" pos="172.04" speed="25.67"/>
            </lane>
        </edge>
    </timestep>
    <timestep time="9.00">
        <edge id="e1">
            <lane id="e1_0"/>
            <lane id="e1_1">
                <vehicle id="9" pos="162.22" speed="24.56"/>
                <vehicle id="5" pos="194.63" speed="25.91"/>
            </lane>
        </edge>
        <edge id="e2">
            <lane id="e2_0">
                <vehicle id="6" pos="199.99" speed="27.95"/>
            </lane>
        </edge>
        <edge id="e3">
            <lane id="e3_0">
                <vehicle id="7" pos="197.80" speed="26.38"/>
            </lane>
        </edge>
        <edge id="e4">
            <lane id="e4_0">
                <vehicle id="0" pos="196.31" speed="24.27"/>
            </lane>
        </edge>
        <edge id="e5">
            <lane id="e5_0">
                <vehicle id="1" pos="199.99" speed="27.95"/>
            </lane>
        </edge>
        <edge id="e6">
            <lane id="e6_0">
                <vehicle id="2" pos="199.47" speed="27.44"/>
            </lane>
        </edge>
        <edge id="e7">
            <lane id="e7_0">
                <vehicle id="3" pos="199.99" speed="27.95"/>
            </lane>
        </edge>
        <edge id="e8">
            <lane id="e8_0">
                <vehicle id="4" pos="199.59" speed="27.56"/>
            </lane>
        </edge>
        <edge id="e9">
            <lane id="e9_0">
                <vehicle id="8" pos="199.99" speed="27.95"/>
            </lane>
        </edge>
    </timestep>
    <timestep time="10.00">
        <edge id="e1">
            <lane id="e1_0"/>
            <lane id="e1_1">
                <vehicle id="9" pos="188.35" speed="26.13"/>
                <vehicle id="5" pos="222.18" speed="27.55"/>
            </lane>
        </edge>
        <edge id="e2">
            <lane id="e2_0">
                <vehicle id="6" pos="226.79" speed="26.80"/>
            </lane>
        </edge>
        <edge id="e3">
            <lane id="e3_0">
                <vehicle id="7" pos="222.58" speed="24.77"/>
            </lane>
        </edge>
        <edge id="e4">
            <lane id="e4_0">
                <vehicle id="0" pos="216.09" speed="19.77"/>
            </lane>
        </edge>
        <edge id="e5">
            <lane id="e5_0">
                <vehicle id="1" pos="227.60" speed="27.62"/>
            </lane>
        </edge>
        <edge id="e6">
            <lane id="e6_0">
                <vehicle id="2" pos="225.31" speed="25.83"/>
            </lane>
        </edge>
        <edge id="e7">
            <lane id="e7_0">
                <vehicle id="3" pos="226.74" speed="26.75"/>
            </lane>
        </edge>
        <edge id="e8">
            <lane id="e8_0">
                <vehicle id="4" pos="222.65" speed="23.06"/>
            </lane>
        </edge>
        <edge id="e9">
            <lane id="e9_0">
                <vehicle id="8" pos="228.07" speed="28.08"/>
            </lane>
        </edge>
    </timestep>
    <timestep time="11.00">
        <edge id="e1">
            <lane id="e1_0"/>
            <lane id="e1_1">
                <vehicle id="9" pos="216.04" speed="27.69"/>
                <vehicle id="5" pos="250.14" speed="27.96"/>
            </lane>
        </edge>
        <edge id="e10">
            <lane id="e10_0">
                <vehicle id="8" pos="3.89" speed="29.12"/>
            </lane>
        </edge>
        <edge id="e3">
            <lane id="e3_0">
                <vehicle id="6" pos="3.99" speed="27.85"/>
                <vehicle id="7" pos="248.39" speed="25.82"/>
            </lane>
        </edge>
        <edge id="e4">
            <lane id="e4_0">
                <vehicle id="0" pos="231.36" speed="15.27"/>
            </lane>
        </edge>
        <edge id="e6">
            <lane id="e6_0">
                <vehicle id="1" pos="2.85" speed="28.66"/>
            </lane>
        </edge>
        <edge id="e7">
            <lane id="e7_0">
                <vehicle id="2" pos="1.32" speed="26.88"/>
            </lane>
        </edge>
        <edge id="e8">
            <lane id="e8_0">
                <vehicle id="3" pos="1.09" speed="27.80"/>
                <vehicle id="4" pos="241.21" speed="18.56"/>
            </lane>
        </edge>
    </timestep>
    <timestep time="12.00">
        <edge id="e1">
            <lane id="e1_0"/>
            <lane id="e1_1">
                <vehicle id="9" pos="245.30" speed="29.26"/>
                <vehicle id="5" pos="278.23" speed="28.09"/>
            </lane>
        </edge>
        <edge id="e10">
            <lane id="e10_0">
                <vehicle id="8" pos="32.29" speed="28.40"/>
            </lane>
        </edge>
        <edge id="e3">
            <lane id="e3_0">
                <vehicle id="6" pos="32.34" speed="28.35"/>
            </lane>
        </edge>
        <edge id="e4">
            <lane id="e4_0">
                <vehicle id="7" pos="21.95" speed="24.51"/>
                <vehicle id="0" pos="242.14" speed="10.77"/>
            </lane>
        </edge>
        <edge id="e6">
            <lane id="e6_0">
                <vehicle id="1" pos="30.21" speed="27.36"/>
            </lane>
        </edge>
        <edge id="e7">
            <lane id="e7_0">
                <vehicle id="2" pos="26.89" speed="25.57"/>
            </lane>
        </edge>
        <edge id="e8">
            <lane id="e8_0">
                <vehicle id="3" pos="29.39" speed="28.30"/>
            </lane>
        </edge>
        <edge id="e9">
            <lane id="e9_0">
                <vehicle id="4" pos="1.68" speed="14.06"/>
            </lane>
        </edge>
    </timestep>
    <timestep time="13.00">
        <edge id=":j2_0">
            <lane id=":j2_0_0">
                <vehicle id="5" pos="5.17" speed="26.94"/>
            </lane>
        </edge>
        <edge id="e1">
            <lane id="e1_0"/>
            <lane id="e1_1">
                <vehicle id="9" pos="276.12" speed="30.82"/>
            </lane>
        </edge>
        <edge id="e10">
            <lane id="e10_0">
                <vehicle id="8" pos="61.18" speed="28.88"/>
            </lane>
        </edge>
        <edge id="e3">
            <lane id="e3_0">
                <vehicle id="6" pos="60.54" speed="28.20"/>
            </lane>
        </edge>
        <edge id="e4">
            <lane id="e4_0">
                <vehicle id="7" pos="48.11" speed="26.16"/>
                <vehicle id="0" pos="249.63" speed="7.49"/>
            </lane>
        </edge>
        <edge id="e6">
            <lane id="e6_0">
                <vehicle id="1" pos="59.37" speed="29.16"/>
            </lane>
        </edge>
        <edge id="e7">
            <lane id="e7_0">
                <vehicle id="2" pos="54.27" speed="27.38"/>
            </lane>
        </edge>
        <edge id="e8">
            <lane id="e8_0">
                <vehicle id="3" pos="57.53" speed="28.15"/>
            </lane>
        </edge>
        <edge id="e9">
            <lane id="e9_0">
                <vehicle id="4" pos="16.16" speed="14.48"/>
            </lane>
        </edge>
    </timestep>
    <timestep time="14.00">
        <edge id=":j2_0">
            <lane id=":j2_0_0">
                <vehicle id="9" pos="4.69" speed="28.57"/>
            </lane>
        </edge>
        <edge id="e10">
            <lane id="e10_0">
                <vehicle id="8" pos="89.92" speed="28.75"/>
            </lane>
        </edge>
        <edge id="e2">
            <lane id="e2_0">
                <vehicle id="5" pos="23.84" speed="27.00"/>
            </lane>
        </edge>
        <edge id="e3">
            <lane id="e3_0">
                <vehicle id="6" pos="88.16" speed="27.62"/>
            </lane>
        </edge>
        <edge id="e4">
            <lane id="e4_0">
                <vehicle id="7" pos="73.84" speed="25.73"/>
            </lane>
        </edge>
        <edge id="e5">
            <lane id="e5_0">
                <vehicle id="0" pos="2.27" speed="3.91"/>
            </lane>
        </edge>
        <edge id="e6">
            <lane id="e6_0">
                <vehicle id="1" pos="88.38" speed="29.01"/>
            </lane>
        </edge>
        <edge id="e7">
            <lane id="e7_0">
                <vehicle id="2" pos="81.49" speed="27.22"/>
            </lane>
        </edge>
        <edge id="e8">
            <lane id="e8_0">
                <vehicle id="3" pos="85.11" speed="27.57"/>
            </lane>
        </edge>
        <edge id="e9">
            <lane id="e9_0">
                <vehicle id="4" pos="32.86" speed="16.70"/>
            </lane>
        </edge>
    </timestep>
    <timestep time="15.00">
        <edge id="e10">
            <lane id="e10_0">
                <vehicle id="8" pos="118.06" speed="28.14"/>
            </lane>
        </edge>
        <edge id="e2">
            <lane id="e2_0">
                <vehicle id="9" pos="26.49" speed="30.13"/>
                <vehicle id="5" pos="50.27" speed="26.42"/>
            </lane>
        </edge>
        <edge id="e3">
            <lane id="e3_0">
                <vehicle id="6" pos="115.92" speed="27.76"/>
            </lane>
        </edge>
        <edge id="e4">
            <lane id="e4_0">
                <vehicle id="7" pos="98.90" speed="25.06"/>
            </lane>
        </edge>
        <edge id="e5">
            <lane id="e5_0">
                <vehicle id="0" pos="6.60" speed="4.33"/>
            </lane>
        </edge>
        <edge id="e6">
            <lane id="e6_0">
                <vehicle id="1" pos="116.81" speed="28.43"/>
            </lane>
        </edge>
        <edge id="e7">
            <lane id="e7_0">
                <vehicle id="2" pos="108.14" speed="26.65"/>
            </lane>
        </edge>
        <edge id="e8">
            <lane id="e8_0">
                <vehicle id="3" pos="112.82" speed="27.71"/>
            </lane>
        </edge>
        <edge id="e9">
            <lane id="e9_0">
                <vehicle id="4" pos="51.63" speed="18.77"/>
            </lane>
        </edge>
    </timestep>
    <timestep time="16.00">
        <edge id="e10">
            <lane id="e10_0">
                <vehicle id="8" pos="147.24" speed="29.17"/>
            </lane>
        </edge>
        <edge id="e2">
            <lane id="e2_0">
                <vehicle id="9" pos="54.38" speed="27.88"/>
                <vehicle id="5" pos="78.49" speed="28.23"/>
            </lane>
        </edge>
        <edge id="e3">
            <lane id="e3_0">
                <vehicle id="6" pos="143.01" speed="27.09"/>
            </lane>
        </edge>
        <edge id="e4">
            <lane id="e4_0">
                <vehicle id="7" pos="124.95" speed="26.05"/>
            </lane>
        </edge>
        <edge id="e5">
            <lane id="e5_0">
                <vehicle id="0" pos="13.16" speed="6.55"/>
            </lane>
        </edge>
        <edge id="e6">
            <lane id="e6_0">
                <vehicle id="1" pos="145.38" speed="28.57"/>
            </lane>
        </edge>
        <edge id="e7">
            <lane id="e7_0">
                <vehicle id="2" pos="134.94" speed="26.79"/>
            </lane>
        </edge>
        <edge id="e8">
            <lane id="e8_0">
                <vehicle id="3" pos="139.86" speed="27.04"/>
            </lane>
        </edge>
        <edge id="e9">
            <lane id="e9_0">
                <vehicle id="4" pos="71.91" speed="20.27"/>
            </lane>
        </edge>
    </timestep>
    <timestep time="17.00">
        <edge id="e10">
            <lane id="e10_0">
                <vehicle id="8" pos="176.63" speed="29.39"/>
            </lane>
        </edge>
        <edge id="e2">
            <lane id="e2_0">
                <vehicle id="9" pos="83.83" speed="29.45"/>
                <vehicle id="5" pos="105.99" speed="27.50"/>
            </lane>
        </edge>
        <edge id="e3">
            <lane id="e3_0">
                <vehicle id="6" pos="171.09" speed="28.08"/>
            </lane>
        </edge>
        <edge id="e4">
            <lane id="e4_0">
                <vehicle id="7" pos="151.34" speed="26.39"/>
            </lane>
        </edge>
        <edge id="e5">
            <lane id="e5_0">
                <vehicle id="0" pos="21.78" speed="8.62"/>
            </lane>
        </edge>
        <edge id="e6">
            <lane id="e6_0">
                <vehicle id="1" pos="173.29" speed="27.90"/>
            </lane>
        </edge>
        <edge id="e7">
            <lane id="e7_0">
                <vehicle id="2" pos="161.06" speed="26.12"/>
            </lane>
        </edge>
        <edge id="e8">
            <lane id="e8_0">
                <vehicle id="3" pos="167.89" speed="28.03"/>
            </lane>
        </edge>
        <edge id="e9">
            <lane id="e9_0">
                <vehicle id="4" pos="93.82" speed="21.91"/>
            </lane>
        </edge>
    </timestep>
    <timestep time="18.00">
        <edge id="e10">
            <lane id="e10_0">
                <vehicle id="8" pos="204.35" speed="27.72"/>
            </lane>
        </edge>
        <edge id="e2">
            <lane id="e2_0">
                <vehicle id="9" pos="106.28" speed="22.45"/>
                <vehicle id="5" pos="132.96" speed="26.97"/>
            </lane>
        </edge>
        <edge id="e3">
            <lane id="e3_0">
                <vehicle id="6" pos="199.51" speed="28.42"/>
            </lane>
        </edge>
        <edge id="e4">
            <lane id="e4_0">
                <vehicle id="7" pos="177.52" speed="26.18"/>
            </lane>
        </edge>
        <edge id="e5">
            <lane id="e5_0">
                <vehicle id="0" pos="31.90" speed="10.12"/>
            </lane>
        </edge>
        <edge id="e6">
            <lane id="e6_0">
                <vehicle id="1" pos="202.18" speed="28.89"/>
            </lane>
        </edge>
        <edge id="e7">
            <lane id="e7_0">
                <vehicle id="2" pos="188.17" speed="27.11"/>
            </lane>
        </edge>
        <edge id="e8">
            <lane id="e8_0">
                <vehicle id="3" pos="195.65" speed="27.76"/>
            </lane>
        </edge>
        <edge id="e9">
            <lane id="e9_0">
                <vehicle id="4" pos="116.69" speed="22.88"/>
            </lane>
        </edge>
    </timestep>
    <timestep time="19.00">
        <edge id="e10">
            <lane id="e10_0">
                <vehicle id="8" pos="227.79" speed="23.44"/>
            </lane>
        </edge>
        <edge id="e2">
            <lane id="e2_0">
                <vehicle id="9" pos="130.29" speed="24.01"/>
                <vehicle id="5" pos="161.26" speed="28.30"/>
            </lane>
        </edge>
        <edge id="e3">
            <lane id="e3_0">
                <vehicle id="6" pos="227.72" speed="28.21"/>
            </lane>
        </edge>
        <edge id="e4">
            <lane id="e4_0">
                <vehicle id="7" pos="199.20" speed="21.68"/>
            </lane>
        </edge>
        <edge id="e5">
            <lane id="e5_0">
                <vehicle id="0" pos="43.66" speed="11.76"/>
            </lane>
        </edge>
        <edge id="e6">
            <lane id="e6_0">
                <vehicle id="1" pos="231.41" speed="29.23"/>
            </lane>
        </edge>
        <edge id="e7">
            <lane id="e7_0">
                <vehicle id="2" pos="215.62" speed="27.45"/>
            </lane>
        </edge>
        <edge id="e8">
            <lane id="e8_0">
                <vehicle id="3" pos="218.91" speed="23.26"/>
            </lane>
        </edge>
        <edge id="e9">
            <lane id="e9_0">
                <vehicle id="4" pos="141.53" speed="24.83"/>
            </lane>
        </edge>