<?xml version="1.0" encoding="UTF-8"?>

<!-- generated on Wed Apr  7 10:28:31 2021 by Eclipse SUMO Version 1.6.0
<configuration xmlns:xsi="http://www.w3.org/2001/XMLSchema-instance" xsi:noNamespaceSchemaLocation="http://sumo.dlr.de/xsd/sumoConfiguration.xsd">

    <input>
        <net-file value="lateral_merge.net.xml"/>
        <route-files value="lateral_merge.rou.xml"/>
        <additional-files value="lateral_merge.add2.xml"/>
    </input>

    <output>
        <netstate-dump value="lateral_merge_output.txt"/>
        <tripinfo-output value="tripinfo.xml"/>
    </output>

    <report>
        <no-warnings value="true"/>
        <error-log value="out.txt"/>
    </report>

    <traci_server>
        <remote-port value="63354"/>
    </traci_server>

    <random_number>
        <random value="true"/>
    </random_number>

</configuration>
-->

<netstate xmlns:xsi="http://www.w3.org/2001/XMLSchema-instance" xsi:noNamespaceSchemaLocation="http://sumo.dlr.de/xsd/netstate_file.xsd">
    <timestep time="0.00">
        <edge id="e1">
            <lane id="e1_0">
                <vehicle id="0" pos="5.10" speed="15.00"/>
            </lane>
            <lane id="e1_1"/>
        </edge>
        <edge id="e10">
            <lane id="e10_0">
                <vehicle id="14" pos="5.10" speed="15.00"/>
            </lane>
        </edge>
        <edge id="e2">
            <lane id="e2_0">
                <vehicle id="1" pos="5.10" speed="15.00"/>
            </lane>
        </edge>
        <edge id="e3">
            <lane id="e3_0">
                <vehicle id="2" pos="5.10" speed="15.00"/>
            </lane>
        </edge>
        <edge id="e4">
            <lane id="e4_0">
                <vehicle id="3" pos="5.10" speed="15.00"/>
            </lane>
        </edge>
        <edge id="e5">
            <lane id="e5_0">
                <vehicle id="4" pos="5.10" speed="15.00"/>
            </lane>
        </edge>
        <edge id="e6">
            <lane id="e6_0">
                <vehicle id="5" pos="5.10" speed="15.00"/>
            </lane>
        </edge>
        <edge id="e7">
            <lane id="e7_0">
                <vehicle id="6" pos="5.10" speed="15.00"/>
            </lane>
        </edge>
        <edge id="e8">
            <lane id="e8_0">
                <vehicle id="7" pos="5.10" speed="15.00"/>
            </lane>
        </edge>
        <edge id="e9">
            <lane id="e9_0">
                <vehicle id="8" pos="5.10" speed="15.00"/>
            </lane>
        </edge>
        <edge id="m1">
            <lane id="m1_0">
                <vehicle id="9" pos="5.10" speed="15.00"/>
            </lane>
        </edge>
        <edge id="m2">
            <lane id="m2_0">
                <vehicle id="10" pos="5.10" speed="15.00"/>
            </lane>
        </edge>
        <edge id="m3">
            <lane id="m3_0">
                <vehicle id="11" pos="5.10" speed="15.00"/>
            </lane>
        </edge>
        <edge id="m4">
            <lane id="m4_0">
                <vehicle id="12" pos="5.10" speed="15.00"/>
            </lane>
        </edge>
        <edge id="m5">
            <lane id="m5_0">
                <vehicle id="13" pos="5.10" speed="15.00"/>
            </lane>
        </edge>
    </timestep>
    <timestep time="1.00">
        <edge id="e1">
            <lane id="e1_0">
                <vehicle id="15" pos="5.10" speed="15.00"/>
            </lane>
            <lane id="e1_1">
                <vehicle id="0" pos="22.05" speed="16.95"/>
            </lane>
        </edge>
        <edge id="e10">
            <lane id="e10_0">
                <vehicle id="29" pos="5.10" speed="15.00"/>
                <vehicle id="14" pos="22.05" speed="16.95"/>
            </lane>
        </edge>
        <edge id="e2">
            <lane id="e2_0">
                <vehicle id="16" pos="5.10" speed="15.00"/>
                <vehicle id="1" pos="22.05" speed="16.95"/>
            </lane>
        </edge>
        <edge id="e3">
            <lane id="e3_0">
                <vehicle id="17" pos="5.10" speed="15.00"/>
                <vehicle id="2" pos="22.05" speed="16.95"/>
            </lane>
        </edge>
        <edge id="e4">
            <lane id="e4_0">
                <vehicle id="18" pos="5.10" speed="15.00"/>
                <vehicle id="3" pos="22.05" speed="16.95"/>
            </lane>
        </edge>
        <edge id="e5">
            <lane id="e5_0">
                <vehicle id="19" pos="5.10" speed="15.00"/>
                <vehicle id="4" pos="22.05" speed="16.95"/>
            </lane>
        </edge>
        <edge id="e6">
            <lane id="e6_0">
                <vehicle id="20" pos="5.10" speed="15.00"/>
                <vehicle id="5" pos="22.05" speed="16.95"/>
            </lane>
        </edge>
        <edge id="e7">
            <lane id="e7_0">
                <vehicle id="21" pos="5.10" speed="15.00"/>
                <vehicle id="6" pos="22.05" speed="16.95"/>
            </lane>
        </edge>
        <edge id="e8">
            <lane id="e8_0">
                <vehicle id="22" pos="5.10" speed="15.00"/>
                <vehicle id="7" pos="22.05" speed="16.95"/>
            </lane>
        </edge>
        <edge id="e9">
            <lane id="e9_0">
                <vehicle id="23" pos="5.10" speed="15.00"/>
                <vehicle id="8" pos="22.05" speed="16.95"/>
            </lane>
        </edge>
        <edge id="m1">
            <lane id="m1_0">
                <vehicle id="9" pos="20.57" speed="15.47"/>
            </lane>
        </edge>
        <edge id="m2">
            <lane id="m2_0">
                <vehicle id="10" pos="19.60" speed="14.50"/>
            </lane>
        </edge>
        <edge id="m3">
            <lane id="m3_0">
                <vehicle id="11" pos="19.45" speed="14.35"/>
            </lane>
        </edge>
        <edge id="m4">
            <lane id="m4_0">
                <vehicle id="12" pos="19.45" speed="14.35"/>
            </lane>
        </edge>
        <edge id="m5">
            <lane id="m5_0">
                <vehicle id="13" pos="19.45" speed="14.35"/>
            </lane>
        </edge>
    </timestep>
    <timestep time="2.00">
        <edge id="e1">
            <lane id="e1_0">
                <vehicle id="30" pos="5.10" speed="15.00"/>
            </lane>
            <lane id="e1_1">
                <vehicle id="15" pos="21.68" speed="16.58"/>
                <vehicle id="0" pos="40.95" speed="18.90"/>
            </lane>
        </edge>
        <edge id="e10">
            <lane id="e10_0">
                <vehicle id="29" pos="19.19" speed="14.09"/>
                <vehicle id="14" pos="40.58" speed="18.53"/>
            </lane>
        </edge>
        <edge id="e2">
            <lane id="e2_0">
                <vehicle id="16" pos="19.19" speed="14.09"/>
                <vehicle id="1" pos="40.58" speed="18.53"/>
            </lane>
        </edge>
        <edge id="e3">
            <lane id="e3_0">
                <vehicle id="17" pos="19.19" speed="14.09"/>
                <vehicle id="2" pos="40.58" speed="18.53"/>
            </lane>
        </edge>
        <edge id="e4">
            <lane id="e4_0">
                <vehicle id="18" pos="19.19" speed="14.09"/>
                <vehicle id="3" pos="40.58" speed="18.53"/>
            </lane>
        </edge>
        <edge id="e5">
            <lane id="e5_0">
                <vehicle id="19" pos="19.19" speed="14.09"/>
                <vehicle id="4" pos="40.58" speed="18.53"/>
            </lane>
        </edge>
        <edge id="e6">
            <lane id="e6_0">
                <vehicle id="20" pos="19.19" speed="14.09"/>
                <vehicle id="5" pos="40.58" speed="18.53"/>
            </lane>
        </edge>
        <edge id="e7">
            <lane id="e7_0">
                <vehicle id="21" pos="19.19" speed="14.09"/>
                <vehicle id="6" pos="40.58" speed="18.53"/>
            </lane>
        </edge>
        <edge id="e8">
            <lane id="e8_0">
                <vehicle id="22" pos="19.19" speed="14.09"/>
                <vehicle id="7" pos="40.58" speed="18.53"/>
            </lane>
        </edge>
        <edge id="e9">
            <lane id="e9_0">
                <vehicle id="23" pos="19.19" speed="14.09"/>
                <vehicle id="8" pos="40.58" speed="18.53"/>
            </lane>
        </edge>
        <edge id="m1">
            <lane id="m1_0">
                <vehicle id="24" pos="5.10" speed="15.00"/>
                <vehicle id="9" pos="35.67" speed="15.10"/>
            </lane>
        </edge>
        <edge id="m2">
            <lane id="m2_0">
                <vehicle id="25" pos="5.10" speed="15.00"/>
                <vehicle id="10" pos="33.73" speed="14.13"/>
            </lane>
        </edge>
        <edge id="m3">
            <lane id="m3_0">
                <vehicle id="26" pos="5.10" speed="15.00"/>
                <vehicle id="11" pos="33.43" speed="13.98"/>
            </lane>
        </edge>
        <edge id="m4">
            <lane id="m4_0">
                <vehicle id="27" pos="5.10" speed="15.00"/>
                <vehicle id="12" pos="33.43" speed="13.98"/>
            </lane>
        </edge>
        <edge id="m5">
            <lane id="m5_0">
                <vehicle id="28" pos="5.10" speed="15.00"/>
                <vehicle id="13" pos="33.43" speed="13.98"/>
            </lane>
        </edge>
    </timestep>
    <timestep time="3.00">
        <edge id="e1">
            <lane id="e1_0">
                <vehicle id="30" pos="21.72" speed="16.62"/>
            </lane>
            <lane id="e1_1">
                <vehicle id="15" pos="38.04" speed="16.36"/>
                <vehicle id="0" pos="61.43" speed="20.48"/>
            </lane>
        </edge>
        <edge id="e10">
            <lane id="e10_0">
                <vehicle id="44" pos="5.10" speed="15.00"/>
                <vehicle id="29" pos="33.73" speed="14.54"/>
                <vehicle id="14" pos="61.38" speed="20.80"/>
            </lane>
        </edge>
        <edge id="e2">
            <lane id="e2_0">
                <vehicle id="31" pos="5.10" speed="15.00"/>
                <vehicle id="16" pos="33.73" speed="14.54"/>
                <vehicle id="1" pos="61.38" speed="20.80"/>
            </lane>
        </edge>
        <edge id="e3">
            <lane id="e3_0">
                <vehicle id="32" pos="5.10" speed="15.00"/>
                <vehicle id="17" pos="33.73" speed="14.54"/>
                <vehicle id="2" pos="61.38" speed="20.80"/>
            </lane>
        </edge>
        <edge id="e4">
            <lane id="e4_0">
                <vehicle id="33" pos="5.10" speed="15.00"/>
                <vehicle id="18" pos="33.73" speed="14.54"/>
                <vehicle id="3" pos="61.38" speed="20.80"/>
            </lane>
        </edge>
        <edge id="e5">
            <lane id="e5_0">
                <vehicle id="34" pos="5.10" speed="15.00"/>
                <vehicle id="19" pos="33.73" speed="14.54"/>
                <vehicle id="4" pos="61.38" speed="20.80"/>
            </lane>
        </edge>
        <edge id="e6">
            <lane id="e6_0">
                <vehicle id="35" pos="5.10" speed="15.00"/>
                <vehicle id="20" pos="33.73" speed="14.54"/>
                <vehicle id="5" pos="61.38" speed="20.80"/>
            </lane>
        </edge>
        <edge id="e7">
            <lane id="e7_0">
                <vehicle id="36" pos="5.10" speed="15.00"/>
                <vehicle id="21" pos="33.73" speed="14.54"/>
                <vehicle id="6" pos="61.38" speed="20.80"/>
            </lane>
        </edge>
        <edge id="e8">
            <lane id="e8_0">
                <vehicle id="37" pos="5.10" speed="15.00"/>
                <vehicle id="22" pos="33.73" speed="14.54"/>
                <vehicle id="7" pos="61.38" speed="20.80"/>
            </lane>
        </edge>
        <edge id="e9">
            <lane id="e9_0">
                <vehicle id="38" pos="5.10" speed="15.00"/>
                <vehicle id="23" pos="33.73" speed="14.54"/>
                <vehicle id="8" pos="61.38" speed="20.80"/>
            </lane>
        </edge>
        <edge id="m1">
            <lane id="m1_0">
                <vehicle id="24" pos="19.77" speed="14.67"/>
                <vehicle id="9" pos="50.80" speed="15.14"/>
            </lane>
        </edge>
        <edge id="m2">
            <lane id="m2_0">
                <vehicle id="25" pos="20.62" speed="15.52"/>
                <vehicle id="10" pos="47.89" speed="14.17"/>
            </lane>
        </edge>
        <edge id="m3">
            <lane id="m3_0">
                <vehicle id="26" pos="19.98" speed="14.88"/>
                <vehicle id="11" pos="47.45" speed="14.02"/>
            </lane>
        </edge>
        <edge id="m4">
            <lane id="m4_0">
                <vehicle id="27" pos="19.77" speed="14.67"/>
                <vehicle id="12" pos="47.45" speed="14.02"/>
            </lane>
        </edge>
        <edge id="m5">
            <lane id="m5_0">
                <vehicle id="28" pos="20.29" speed="15.19"/>
                <vehicle id="13" pos="47.45" speed="14.02"/>
            </lane>
        </edge>
    </timestep>
    <timestep time="4.00">
        <edge id="e1">
            <lane id="e1_0">
                <vehicle id="45" pos="5.10" speed="15.00"/>
            </lane>
            <lane id="e1_1">
                <vehicle id="30" pos="36.39" speed="14.67"/>
                <vehicle id="15" pos="55.92" speed="17.88"/>
                <vehicle id="0" pos="84.18" speed="22.75"/>
            </lane>
        </edge>
        <edge id="e10">
            <lane id="e10_0">
                <vehicle id="44" pos="21.24" speed="16.14"/>
                <vehicle id="29" pos="48.91" speed="15.18"/>
                <vehicle id="14" pos="83.02" speed="21.64"/>
            </lane>
        </edge>
        <edge id="e2">
            <lane id="e2_0">
                <vehicle id="31" pos="21.24" speed="16.14"/>
                <vehicle id="16" pos="48.91" speed="15.18"/>
                <vehicle id="1" pos="83.02" speed="21.64"/>
            </lane>
        </edge>
        <edge id="e3">
            <lane id="e3_0">
                <vehicle id="32" pos="21.24" speed="16.14"/>
                <vehicle id="17" pos="48.91" speed="15.18"/>
                <vehicle id="2" pos="83.02" speed="21.64"/>
            </lane>
        </edge>
        <edge id="e4">
            <lane id="e4_0">
                <vehicle id="33" pos="21.24" speed="16.14"/>
                <vehicle id="18" pos="48.91" speed="15.18"/>
                <vehicle id="3" pos="83.02" speed="21.64"/>
            </lane>
        </edge>
        <edge id="e5">
            <lane id="e5_0">
                <vehicle id="34" pos="21.24" speed="16.14"/>
                <vehicle id="19" pos="48.91" speed="15.18"/>
                <vehicle id="4" pos="83.02" speed="21.64"/>
            </lane>
        </edge>
        <edge id="e6">
            <lane id="e6_0">
                <vehicle id="35" pos="21.24" speed="16.14"/>
                <vehicle id="20" pos="48.91" speed="15.18"/>
                <vehicle id="5" pos="83.02" speed="21.64"/>
            </lane>
        </edge>
        <edge id="e7">
            <lane id="e7_0">
                <vehicle id="36" pos="21.24" speed="16.14"/>
                <vehicle id="21" pos="48.91" speed="15.18"/>
                <vehicle id="6" pos="83.02" speed="21.64"/>
            </lane>
        </edge>
        <edge id="e8">
            <lane id="e8_0">
                <vehicle id="37" pos="21.24" speed="16.14"/>
                <vehicle id="22" pos="48.91" speed="15.18"/>
                <vehicle id="7" pos="83.02" speed="21.64"/>
            </lane>
        </edge>
        <edge id="e9">
            <lane id="e9_0">
                <vehicle id="38" pos="21.24" speed="16.14"/>
                <vehicle id="23" pos="48.91" speed="15.18"/>
                <vehicle id="8" pos="83.02" speed="21.64"/>
            </lane>
        </edge>
        <edge id="m1">
            <lane id="m1_0">
                <vehicle id="39" pos="5.10" speed="15.00"/>
                <vehicle id="24" pos="33.00" speed="13.24"/>
                <vehicle id="9" pos="64.77" speed="13.96"/>
            </lane>
        </edge>
        <edge id="m2">
            <lane id="m2_0">
                <vehicle id="40" pos="5.10" speed="15.00"/>
                <vehicle id="25" pos="34.42" speed="13.80"/>
                <vehicle id="10" pos="60.89" speed="12.99"/>
            </lane>
        </edge>
        <edge id="m3">
            <lane id="m3_0">
                <vehicle id="41" pos="5.10" speed="15.00"/>
                <vehicle id="26" pos="33.42" speed="13.44"/>
                <vehicle id="11" pos="60.29" speed="12.85"/>
            </lane>
        </edge>
        <edge id="m4">
            <lane id="m4_0">
                <vehicle id="42" pos="5.10" speed="15.00"/>
                <vehicle id="27" pos="33.00" speed="13.24"/>
                <vehicle id="12" pos="60.29" speed="12.85"/>
            </lane>
        </edge>
        <edge id="m5">
            <lane id="m5_0">
                <vehicle id="43" pos="5.10" speed="15.00"/>
                <vehicle id="28" pos="33.95" speed="13.66"/>
                <vehicle id="13" pos="60.29" speed="12.85"/>
            </lane>
        </edge>
    </timestep>
    <timestep time="5.00">
        <edge id="e1">
            <lane id="e1_0">
                <vehicle id="60" pos="5.10" speed="15.00"/>
            </lane>
            <lane id="e1_1">
                <vehicle id="45" pos="20.55" speed="15.45"/>
                <vehicle id="30" pos="52.76" speed="16.37"/>
                <vehicle id="15" pos="74.44" speed="18.53"/>
                <vehicle id="0" pos="107.76" speed="23.59"/>
            </lane>
        </edge>
        <edge id="e10">
            <lane id="e10_0">
                <vehicle id="59" pos="5.10" speed="15.00"/>
                <vehicle id="44" pos="36.86" speed="15.62"/>
                <vehicle id="29" pos="66.06" speed="17.15"/>
                <vehicle id="14" pos="106.99" speed="23.97"/>
            </lane>
        </edge>
        <edge id="e2">
            <lane id="e2_0">
                <vehicle id="46" pos="5.10" speed="15.00"/>
                <vehicle id="31" pos="36.86" speed="15.62"/>
                <vehicle id="16" pos="66.06" speed="17.15"/>
                <vehicle id="1" pos="106.99" speed="23.97"/>
            </lane>
        </edge>
        <edge id="e3">
            <lane id="e3_0">
                <vehicle id="47" pos="5.10" speed="15.00"/>
                <vehicle id="32" pos="36.86" speed="15.62"/>
                <vehicle id="17" pos="66.06" speed="17.15"/>
                <vehicle id="2" pos="106.99" speed="23.97"/>
            </lane>
        </edge>
        <edge id="e4">
            <lane id="e4_0">
                <vehicle id="48" pos="5.10" speed="15.00"/>
                <vehicle id="33" pos="36.86" speed="15.62"/>
                <vehicle id="18" pos="66.06" speed="17.15"/>
                <vehicle id="3" pos="106.99" speed="23.97"/>
            </lane>
        </edge>
        <edge id="e5">
            <lane id="e5_0">
                <vehicle id="49" pos="5.10" speed="15.00"/>
                <vehicle id="34" pos="36.86" speed="15.62"/>
                <vehicle id="19" pos="66.06" speed="17.15"/>
                <vehicle id="4" pos="106.99" speed="23.97"/>
            </lane>
        </edge>
        <edge id="e6">
            <lane id="e6_0">
                <vehicle id="50" pos="5.10" speed="15.00"/>
                <vehicle id="35" pos="36.86" speed="15.62"/>
                <vehicle id="20" pos="66.06" speed="17.15"/>
                <vehicle id="5" pos="106.99" speed="23.97"/>
            </lane>
        </edge>
        <edge id="e7">
            <lane id="e7_0">
                <vehicle id="51" pos="5.10" speed="15.00"/>
                <vehicle id="36" pos="36.86" speed="15.62"/>
                <vehicle id="21" pos="66.06" speed="17.15"/>
                <vehicle id="6" pos="106.99" speed="23.97"/>
            </lane>
        </edge>
        <edge id="e8">
            <lane id="e8_0">
                <vehicle id="52" pos="5.10" speed="15.00"/>
                <vehicle id="37" pos="36.86" speed="15.62"/>
                <vehicle id="22" pos="66.06" speed="17.15"/>
                <vehicle id="7" pos="106.99" speed="23.97"/>
            </lane>
        </edge>
        <edge id="e9">
            <lane id="e9_0">
                <vehicle id="53" pos="5.10" speed="15.00"/>
                <vehicle id="38" pos="36.86" speed="15.62"/>
                <vehicle id="23" pos="66.06" speed="17.15"/>
                <vehicle id="8" pos="106.99" speed="23.97"/>
            </lane>
        </edge>
        <edge id="m1">
            <lane id="m1_0">
                <vehicle id="39" pos="19.93" speed="14.83"/>
                <vehicle id="24" pos="47.96" speed="14.95"/>
                <vehicle id="9" pos="78.93" speed="14.17"/>
            </lane>
        </edge>
        <edge id="m2">
            <lane id="m2_0">
                <vehicle id="40" pos="20.25" speed="15.15"/>
                <vehicle id="25" pos="48.99" speed="14.57"/>
                <vehicle id="10" pos="74.08" speed="13.20"/>
            </lane>
        </edge>
        <edge id="m3">
            <lane id="m3_0">
                <vehicle id="41" pos="19.97" speed="14.87"/>
                <vehicle id="26" pos="48.01" speed="14.59"/>
                <vehicle id="11" pos="73.34" speed="13.05"/>
            </lane>
        </edge>
        <edge id="m4">
            <lane id="m4_0">
                <vehicle id="42" pos="19.93" speed="14.83"/>
                <vehicle id="27" pos="47.70" speed="14.70"/>
                <vehicle id="12" pos="73.34" speed="13.05"/>
            </lane>
        </edge>
        <edge id="m5">
            <lane id="m5_0">
                <vehicle id="43" pos="19.83" speed="14.73"/>
                <vehicle id="28" pos="48.41" speed="14.46"/>
                <vehicle id="13" pos="73.34" speed="13.05"/>
            </lane>
        </edge>
    </timestep>
    <timestep time="6.00">
        <edge id="e1">
            <lane id="e1_0">
                <vehicle id="60" pos="20.94" speed="15.84"/>
            </lane>
            <lane id="e1_1">
                <vehicle id="45" pos="36.56" speed="16.02"/>
                <vehicle id="30" pos="69.52" speed="16.77"/>
                <vehicle id="15" pos="94.94" speed="20.49"/>
                <vehicle id="0" pos="133.20" speed="25.44"/>
            </lane>
        </edge>
        <edge id="e10">
            <lane id="e10_0">
                <vehicle id="74" pos="5.10" speed="15.00"/>
                <vehicle id="59" pos="22.63" speed="17.53"/>
                <vehicle id="44" pos="54.49" speed="17.63"/>
                <vehicle id="29" pos="83.55" speed="17.49"/>
                <vehicle id="14" pos="131.53" speed="24.54"/>
            </lane>
        </edge>
        <edge id="e2">
            <lane id="e2_0">
                <vehicle id="61" pos="5.10" speed="15.00"/>
                <vehicle id="46" pos="22.63" speed="17.53"/>
                <vehicle id="31" pos="54.49" speed="17.63"/>
                <vehicle id="16" pos="83.55" speed="17.49"/>
                <vehicle id="1" pos="131.53" speed="24.54"/>
            </lane>
        </edge>
        <edge id="e3">
            <lane id="e3_0">
                <vehicle id="62" pos="5.10" speed="15.00"/>
                <vehicle id="47" pos="22.63" speed="17.53"/>
                <vehicle id="32" pos="54.49" speed="17.63"/>
                <vehicle id="17" pos="83.55" speed="17.49"/>
                <vehicle id="2" pos="131.53" speed="24.54"/>
            </lane>
        </edge>
        <edge id="e4">
            <lane id="e4_0">
                <vehicle id="63" pos="5.10" speed="15.00"/>
                <vehicle id="48" pos="22.63" speed="17.53"/>
                <vehicle id="33" pos="54.49" speed="17.63"/>
                <vehicle id="18" pos="83.55" speed="17.49"/>
                <vehicle id="3" pos="131.53" speed="24.54"/>
            </lane>
        </edge>
        <edge id="e5">
            <lane id="e5_0">
                <vehicle id="64" pos="5.10" speed="15.00"/>
                <vehicle id="49" pos="22.63" speed="17.53"/>
                <vehicle id="34" pos="54.49" speed="17.63"/>
                <vehicle id="19" pos="83.55" speed="17.49"/>
                <vehicle id="4" pos="131.53" speed="24.54"/>
            </lane>
        </edge>
        <edge id="e6">
            <lane id="e6_0">
                <vehicle id="65" pos="5.10" speed="15.00"/>
                <vehicle id="50" pos="22.63" speed="17.53"/>
                <vehicle id="35" pos="54.49" speed="17.63"/>
                <vehicle id="20" pos="83.55" speed="17.49"/>
                <vehicle id="5" pos="131.53" speed="24.54"/>
            </lane>
        </edge>
        <edge id="e7">
            <lane id="e7_0">
                <vehicle id="66" pos="5.10" speed="15.00"/>
                <vehicle id="51" pos="22.63" speed="17.53"/>
                <vehicle id="36" pos="54.49" speed="17.63"/>
                <vehicle id="21" pos="83.55" speed="17.49"/>
                <vehicle id="6" pos="131.53" speed="24.54"/>
            </lane>
        </edge>
        <edge id="e8">
            <lane id="e8_0">
                <vehicle id="67" pos="5.10" speed="15.00"/>
                <vehicle id="52" pos="22.63" speed="17.53"/>
                <vehicle id="37" pos="54.49" speed="17.63"/>
                <vehicle id="22" pos="83.55" speed="17.49"/>
                <vehicle id="7" pos="131.53" speed="24.54"/>
            </lane>
        </edge>
        <edge id="e9">
            <lane id="e9_0">
                <vehicle id="68" pos="5.10" speed="15.00"/>
                <vehicle id="53" pos="22.63" speed="17.53"/>
                <vehicle id="38" pos="54.49" speed="17.63"/>
                <vehicle id="23" pos="83.55" speed="17.49"/>
                <vehicle id="8" pos="131.53" speed="24.54"/>
            </lane>
        </edge>
        <edge id="m1">
            <lane id="m1_0">
                <vehicle id="54" pos="5.10" speed="15.00"/>
                <vehicle id="39" pos="33.14" speed="13.21"/>
                <vehicle id="24" pos="62.15" speed="14.19"/>
                <vehicle id="9" pos="94.42" speed="15.49"/>
            </lane>
        </edge>
        <edge id="m2">
            <lane id="m2_0">
                <vehicle id="55" pos="5.10" speed="15.00"/>
                <vehicle id="40" pos="33.64" speed="13.39"/>
                <vehicle id="25" pos="62.55" speed="13.57"/>
                <vehicle id="10" pos="88.60" speed="14.52"/>
            </lane>
        </edge>
        <edge id="m3">
            <lane id="m3_0">
                <vehicle id="56" pos="5.10" speed="15.00"/>
                <vehicle id="41" pos="33.08" speed="13.11"/>
                <vehicle id="26" pos="61.56" speed="13.55"/>
                <vehicle id="11" pos="87.71" speed="14.37"/>
            </lane>
        </edge>
        <edge id="m4">
            <lane id="m4_0">
                <vehicle id="57" pos="5.10" speed="15.00"/>
                <vehicle id="42" pos="33.99" speed="14.06"/>
                <vehicle id="27" pos="61.33" speed="13.63"/>
                <vehicle id="12" pos="87.71" speed="14.37"/>
            </lane>
        </edge>
        <edge id="m5">
            <lane id="m5_0">
                <vehicle id="43" pos="32.81" speed="12.97"/>
                <vehicle id="28" pos="61.86" speed="13.45"/>
                <vehicle id="13" pos="87.71" speed="14.37"/>
            </lane>
        </edge>
    </timestep>
    <timestep time="7.00">
        <edge id="e1">
            <lane id="e1_0">
                <vehicle id="75" pos="5.10" speed="15.00"/>
            </lane>
            <lane id="e1_1">
                <vehicle id="60" pos="34.83" speed="13.89"/>
                <vehicle id="45" pos="53.89" speed="17.33"/>
                <vehicle id="30" pos="88.82" speed="19.30"/>
                <vehicle id="15" pos="117.43" speed="22.50"/>
                <vehicle id="0" pos="156.65" speed="23.45"/>
            </lane>
        </edge>
        <edge id="e10">
            <lane id="e10_0">
                <vehicle id="74" pos="20.04" speed="14.94"/>
                <vehicle id="59" pos="39.84" speed="17.21"/>
                <vehicle id="44" pos="71.43" speed="16.94"/>
                <vehicle id="29" pos="103.37" speed="19.82"/>
                <vehicle id="14" pos="156.10" speed="24.57"/>
            </lane>
        </edge>
        <edge id="e2">
            <lane id="e2_0">
                <vehicle id="61" pos="20.04" speed="14.94"/>
                <vehicle id="46" pos="39.84" speed="17.21"/>
                <vehicle id="31" pos="71.43" speed="16.94"/>
                <vehicle id="16" pos="103.37" speed="19.82"/>
                <vehicle id="1" pos="156.10" speed="24.57"/>
            </lane>
        </edge>
        <edge id="e3">
            <lane id="e3_0">
                <vehicle id="62" pos="20.04" speed="14.94"/>
                <vehicle id="47" pos="39.84" speed="17.21"/>
                <vehicle id="32" pos="71.43" speed="16.94"/>
                <vehicle id="17" pos="103.37" speed="19.82"/>
                <vehicle id="2" pos="156.10" speed="24.57"/>
            </lane>
        </edge>
        <edge id="e4">
            <lane id="e4_0">
                <vehicle id="63" pos="20.04" speed="14.94"/>
                <vehicle id="48" pos="39.84" speed="17.21"/>
                <vehicle id="33" pos="71.43" speed="16.94"/>
                <vehicle id="18" pos="103.37" speed="19.82"/>