<?xml version="1.0" encoding="UTF-8"?>

<!-- generated on Wed Apr 14 17:39:34 2021 by Eclipse SUMO Version 1.6.0
<configuration xmlns:xsi="http://www.w3.org/2001/XMLSchema-instance" xsi:noNamespaceSchemaLocation="http://sumo.dlr.de/xsd/sumoConfiguration.xsd">

    <input>
        <net-file value="lateral_merge.net.xml"/>
        <route-files value="lateral_merge.rou.xml"/>
        <additional-files value="lateral_merge.add.xml"/>
    </input>

    <output>
        <netstate-dump value="lateral_merge_output.txt"/>
        <tripinfo-output value="tripinfo.xml"/>
    </output>

    <report>
        <no-warnings value="true"/>
        <error-log value="out.txt"/>
    </report>

    <traci_server>
        <remote-port value="54792"/>
    </traci_server>

    <random_number>
        <random value="true"/>
    </random_number>

</configuration>
-->

<tripinfos xmlns:xsi="http://www.w3.org/2001/XMLSchema-instance" xsi:noNamespaceSchemaLocation="http://sumo.dlr.de/xsd/tripinfo_file.xsd">
