<?xml version="1.0" encoding="UTF-8"?>

<!-- generated on Wed Apr  7 10:28:31 2021 by Eclipse SUMO Version 1.6.0
<configuration xmlns:xsi="http://www.w3.org/2001/XMLSchema-instance" xsi:noNamespaceSchemaLocation="http://sumo.dlr.de/xsd/sumoConfiguration.xsd">

    <input>
        <net-file value="lateral_merge.net.xml"/>
        <route-files value="lateral_merge.rou.xml"/>
        <additional-files value="lateral_merge.add2.xml"/>
    </input>

    <output>
        <netstate-dump value="lateral_merge_output.txt"/>
        <tripinfo-output value="tripinfo.xml"/>
    </output>

    <report>
        <no-warnings value="true"/>
        <error-log value="out.txt"/>
    </report>

    <traci_server>
        <remote-port value="63354"/>
    </traci_server>

    <random_number>
        <random value="true"/>
    </random_number>

</configuration>
-->

<tripinfos xmlns:xsi="http://www.w3.org/2001/XMLSchema-instance" xsi:noNamespaceSchemaLocation="http://sumo.dlr.de/xsd/tripinfo_file.xsd">
    <tripinfo id="34" depart="3.00" departLane="e5_0" departPos="5.10" departSpeed="15.00" departDelay="3.00" arrival="5010.00" arrivalLane="e2_0" arrivalPos="250.00" arrivalSpeed="29.13" duration="5007.00" routeLength="49655.91" waitingTime="32.00" waitingCount="32" stopTime="0.00" timeLoss="2754.01" rerouteNo="64" devices="tripinfo_34" vType="krauss" speedFactor="1.04" vaporized=""/>
    <tripinfo id="49" depart="5.00" departLane="e5_0" departPos="5.10" departSpeed="15.00" departDelay="5.00" arrival="5013.00" arrivalLane="e2_0" arrivalPos="250.00" arrivalSpeed="28.15" duration="5008.00" routeLength="49655.91" waitingTime="40.00" waitingCount="39" stopTime="0.00" timeLoss="2715.14" rerouteNo="64" devices="tripinfo_49" vType="krauss" speedFactor="1.00" vaporized=""/>
    <tripinfo id="81" depart="37.00" departLane="e7_0" departPos="5.10" departSpeed="15.00" departDelay="37.00" arrival="5016.00" arrivalLane="m7_0" arrivalPos="170.00" arrivalSpeed="12.85" duration="4979.00" routeLength="48580.28" waitingTime="41.00" waitingCount="37" stopTime="0.00" timeLoss="2715.11" rerouteNo="62" devices="tripinfo_81" vType="krauss" speedFactor="1.00" vaporized=""/>
    <tripinfo id="64" depart="6.00" departLane="e5_0" departPos="5.10" departSpeed="15.00" departDelay="6.00" arrival="5018.00" arrivalLane="e2_0" arrivalPos="250.00" arrivalSpeed="29.89" duration="5012.00" routeLength="49655.91" waitingTime="29.00" waitingCount="28" stopTime="0.00" timeLoss="2740.22" rerouteNo="64" devices="tripinfo_64" vType="krauss" speedFactor="1.02" vaporized=""/>
    <tripinfo id="3" depart="0.00" departLane="e4_0" departPos="5.10" departSpeed="15.00" departDelay="0.00" arrival="5020.00" arrivalLane="m7_0" arrivalPos="170.00" arrivalSpeed="13.35" duration="5020.00" routeLength="49335.82" waitingTime="34.00" waitingCount="31" stopTime="0.00" timeLoss="2639.58" rerouteNo="62" devices="tripinfo_3" vType="krauss" speedFactor="0.96" vaporized=""/>
    <tripinfo id="80" depart="19.00" departLane="e6_0" departPos="5.10" departSpeed="15.00" departDelay="19.00" arrival="5021.00" arrivalLane="e2_0" arrivalPos="250.00" arrivalSpeed="28.02" duration="5002.00" routeLength="49402.50" waitingTime="45.00" waitingCount="43" stopTime="0.00" timeLoss="2790.51" rerouteNo="64" devices="tripinfo_80" vType="krauss" speedFactor="1.07" vaporized=""/>
    <tripinfo id="18" depart="1.00" departLane="e4_0" departPos="5.10" departSpeed="15.00" departDelay="1.00" arrival="5023.00" arrivalLane="m7_0" arrivalPos="170.00" arrivalSpeed="12.45" duration="5022.00" routeLength="49335.82" waitingTime="34.00" waitingCount="34" stopTime="0.00" timeLoss="2624.34" rerouteNo="62" devices="tripinfo_18" vType="krauss" speedFactor="0.95" vaporized=""/>
    <tripinfo id="79" depart="10.00" departLane="e5_0" departPos="5.10" departSpeed="15.00" departDelay="10.00" arrival="5027.00" arrivalLane="e1_0" arrivalPos="300.00" arrivalSpeed="23.29" duration="5017.00" routeLength="49397.58" waitingTime="36.00" waitingCount="31" stopTime="0.00" timeLoss="2293.83" rerouteNo="63" devices="tripinfo_79" vType="krauss" speedFactor="0.84" vaporized=""/>
    <tripinfo id="33" depart="3.00" departLane="e4_0" departPos="5.10" departSpeed="15.00" departDelay="3.00" arrival="5028.00" arrivalLane="m7_0" arrivalPos="170.00" arrivalSpeed="12.71" duration="5025.00" routeLength="49335.82" waitingTime="39.00" waitingCount="37" stopTime="0.00" timeLoss="2732.88" rerouteNo="62" devices="tripinfo_33" vType="krauss" speedFactor="0.99" vaporized=""/>
    <tripinfo id="94" depart="12.00" departLane="e5_0" departPos="5.10" departSpeed="15.00" departDelay="12.00" arrival="5029.00" arrivalLane="e1_0" arrivalPos="300.00" arrivalSpeed="26.30" duration="5017.00" routeLength="49397.58" waitingTime="33.00" waitingCount="31" stopTime="0.00" timeLoss="2715.21" rerouteNo="63" devices="tripinfo_94" vType="krauss" speedFactor="0.99" vaporized=""/>
    <tripinfo id="95" depart="24.00" departLane="e6_0" departPos="5.10" departSpeed="15.00" departDelay="24.00" arrival="5030.00" arrivalLane="e1_1" arrivalPos="300.00" arrivalSpeed="29.34" duration="5006.00" routeLength="49144.17" waitingTime="42.00" waitingCount="35" stopTime="0.00" timeLoss="2791.09" rerouteNo="63" devices="tripinfo_95" vType="krauss" speedFactor="1.05" vaporized=""/>
    <tripinfo id="97" depart="56.00" departLane="e8_0" departPos="5.10" departSpeed="15.00" departDelay="56.00" arrival="5030.00" arrivalLane="m7_0" arrivalPos="170.00" arrivalSpeed="12.74" duration="4974.00" routeLength="48326.83" waitingTime="42.00" waitingCount="40" stopTime="0.00" timeLoss="2784.88" rerouteNo="62" devices="tripinfo_97" vType="krauss" speedFactor="1.05" vaporized=""/>
    <tripinfo id="96" depart="48.00" departLane="e7_0" departPos="5.10" departSpeed="15.00" departDelay="48.00" arrival="5034.00" arrivalLane="m7_0" arrivalPos="170.00" arrivalSpeed="14.01" duration="4986.00" routeLength="48580.28" waitingTime="42.00" waitingCount="40" stopTime="0.00" timeLoss="2753.46" rerouteNo="62" devices="tripinfo_96" vType="krauss" speedFactor="1.02" vaporized=""/>
    <tripinfo id="48" depart="5.00" departLane="e4_0" departPos="5.10" departSpeed="15.00" departDelay="5.00" arrival="5038.00" arrivalLane="m7_0" arrivalPos="170.00" arrivalSpeed="13.21" duration="5033.00" routeLength="49335.82" waitingTime="38.00" waitingCount="37" stopTime="0.00" timeLoss="2737.69" rerouteNo="62" devices="tripinfo_48" vType="krauss" speedFactor="0.99" vaporized=""/>
    <tripinfo id="63" depart="6.00" departLane="e4_0" departPos="5.10" departSpeed="15.00" departDelay="6.00" arrival="5040.00" arrivalLane="m7_0" arrivalPos="170.00" arrivalSpeed="13.19" duration="5034.00" routeLength="49335.82" waitingTime="41.00" waitingCount="37" stopTime="0.00" timeLoss="2788.34" rerouteNo="62" devices="tripinfo_63" vType="krauss" speedFactor="1.03" vaporized=""/>
    <tripinfo id="2" depart="0.00" departLane="e3_0" departPos="5.10" departSpeed="15.00" departDelay="0.00" arrival="5042.00" arrivalLane="m7_0" arrivalPos="170.00" arrivalSpeed="14.49" duration="5042.00" routeLength="49586.78" waitingTime="54.00" waitingCount="50" stopTime="0.00" timeLoss="2858.27" rerouteNo="62" devices="tripinfo_2" vType="krauss" speedFactor="1.09" vaporized=""/>
    <tripinfo id="83" depart="82.00" departLane="e9_0" departPos="5.10" departSpeed="15.00" departDelay="82.00" arrival="5048.00" arrivalLane="m7_0" arrivalPos="170.00" arrivalSpeed="13.63" duration="4966.00" routeLength="48073.24" waitingTime="48.00" waitingCount="46" stopTime="0.00" timeLoss="2755.16" rerouteNo="62" devices="tripinfo_83" vType="krauss" speedFactor="1.02" vaporized=""/>
    <tripinfo id="57" depart="6.00" departLane="m4_0" departPos="5.10" departSpeed="15.00" departDelay="6.00" arrival="5052.00" arrivalLane="m1_0" arrivalPos="180.00" arrivalSpeed="8.21" duration="5046.00" routeLength="49793.34" waitingTime="41.00" waitingCount="39" stopTime="0.00" timeLoss="2851.18" rerouteNo="64" devices="tripinfo_57" vType="krauss" speedFactor="1.08" vaporized=""/>
    <tripinfo id="72" depart="8.00" departLane="m4_0" departPos="5.10" departSpeed="15.00" departDelay="8.00" arrival="5057.00" arrivalLane="m1_0" arrivalPos="180.00" arrivalSpeed="8.59" duration="5049.00" routeLength="49793.34" waitingTime="31.00" waitingCount="29" stopTime="0.00" timeLoss="2842.09" rerouteNo="64" devices="tripinfo_72" vType="krauss" speedFactor="1.07" vaporized=""/>
    <tripinfo id="11" depart="0.00" departLane="m3_0" departPos="5.10" departSpeed="15.00" departDelay="0.00" arrival="5059.00" arrivalLane="m1_0" arrivalPos="180.00" arrivalSpeed="11.02" duration="5059.00" routeLength="49973.89" waitingTime="39.00" waitingCount="37" stopTime="0.00" timeLoss="2839.41" rerouteNo="64" devices="tripinfo_11" vType="krauss" speedFactor="1.07" vaporized=""/>
    <tripinfo id="17" depart="1.00" departLane="e3_0" departPos="5.10" departSpeed="15.00" departDelay="1.00" arrival="5059.00" arrivalLane="m7_0" arrivalPos="170.00" arrivalSpeed="12.26" duration="5058.00" routeLength="49586.78" waitingTime="44.00" waitingCount="42" stopTime="0.00" timeLoss="2534.66" rerouteNo="62" devices="tripinfo_17" vType="krauss" speedFactor="0.91" vaporized=""/>
    <tripinfo id="32" depart="3.00" departLane="e3_0" departPos="5.10" departSpeed="15.00" departDelay="3.00" arrival="5061.00" arrivalLane="m7_0" arrivalPos="170.00" arrivalSpeed="12.35" duration="5058.00" routeLength="49586.78" waitingTime="35.00" waitingCount="33" stopTime="0.00" timeLoss="2836.11" rerouteNo="62" devices="tripinfo_32" vType="krauss" speedFactor="1.06" vaporized=""/>
    <tripinfo id="26" depart="2.00" departLane="m3_0" departPos="5.10" departSpeed="15.00" departDelay="2.00" arrival="5062.00" arrivalLane="m1_0" arrivalPos="180.00" arrivalSpeed="8.29" duration="5060.00" routeLength="49973.89" waitingTime="42.00" waitingCount="40" stopTime="0.00" timeLoss="2856.40" rerouteNo="64" devices="tripinfo_26" vType="krauss" speedFactor="1.09" vaporized=""/>
    <tripinfo id="41" depart="4.00" departLane="m3_0" departPos="5.10" departSpeed="15.00" departDelay="4.00" arrival="5064.00" arrivalLane="m1_0" arrivalPos="180.00" arrivalSpeed="10.65" duration="5060.00" routeLength="49973.89" waitingTime="42.00" waitingCount="40" stopTime="0.00" timeLoss="2852.73" rerouteNo="64" devices="tripinfo_41" vType="krauss" speedFactor="1.08" vaporized=""/>
    <tripinfo id="47" depart="5.00" departLane="e3_0" departPos="5.10" departSpeed="15.00" departDelay="5.00" arrival="5066.00" arrivalLane="m7_0" arrivalPos="170.00" arrivalSpeed="14.13" duration="5061.00" routeLength="49586.78" waitingTime="36.00" waitingCount="35" stopTime="0.00" timeLoss="2814.70" rerouteNo="62" devices="tripinfo_47" vType="krauss" speedFactor="1.04" vaporized=""/>
    <tripinfo id="56" depart="6.00" departLane="m3_0" departPos="5.10" departSpeed="15.00" departDelay="6.00" arrival="5066.00" arrivalLane="m1_0" arrivalPos="180.00" arrivalSpeed="12.92" duration="5060.00" routeLength="49973.89" waitingTime="29.00" waitingCount="28" stopTime="0.00" timeLoss="2847.30" rerouteNo="64" devices="tripinfo_56" vType="krauss" speedFactor="1.07" vaporized=""/>
    <tripinfo id="98" depart="93.00" departLane="e9_0" departPos="5.10" departSpeed="15.00" departDelay="93.00" arrival="5068.00" arrivalLane="m7_0" arrivalPos="170.00" arrivalSpeed="14.20" duration="4975.00" routeLength="48073.24" waitingTime="33.00" waitingCount="30" stopTime="0.00" timeLoss="2826.97" rerouteNo="62" devices="tripinfo_98" vType="krauss" speedFactor="1.08" vaporized=""/>
    <tripinfo id="71" depart="8.00" departLane="m3_0" departPos="5.10" departSpeed="15.00" departDelay="8.00" arrival="5069.00" arrivalLane="m1_0" arrivalPos="180.00" arrivalSpeed="11.94" duration="5061.00" routeLength="49973.89" waitingTime="43.00" waitingCount="40" stopTime="0.00" timeLoss="2948.34" rerouteNo="64" devices="tripinfo_71" vType="krauss" speedFactor="1.18" vaporized=""/>
    <tripinfo id="86" depart="10.00" departLane="m3_0" departPos="5.10" departSpeed="15.00" departDelay="10.00" arrival="5071.00" arrivalLane="m1_0" arrivalPos="180.00" arrivalSpeed="14.35" duration="5061.00" routeLength="49973.89" waitingTime="38.00" waitingCount="33" stopTime="0.00" timeLoss="2848.64" rerouteNo="64" devices="tripinfo_86" vType="krauss" speedFactor="1.07" vaporized=""/>
    <tripinfo id="10" depart="0.00" departLane="m2_0" departPos="5.10" departSpeed="15.00" departDelay="0.00" arrival="5073.00" arrivalLane="m1_0" arrivalPos="180.00" arrivalSpeed="13.60" duration="5073.00" routeLength="50155.25" waitingTime="43.00" waitingCount="40" stopTime="0.00" timeLoss="2857.29" rerouteNo="64" devices="tripinfo_10" vType="krauss" speedFactor="1.08" vaporized=""/>
    <tripinfo id="25" depart="2.00" departLane="m2_0" departPos="5.10" departSpeed="15.00" departDelay="2.00" arrival="5075.00" arrivalLane="m1_0" arrivalPos="180.00" arrivalSpeed="13.47" duration="5073.00" routeLength="50155.25" waitingTime="40.00" waitingCount="36" stopTime="0.00" timeLoss="2900.87" rerouteNo="64" devices="tripinfo_25" vType="krauss" speedFactor="1.13" vaporized=""/>
    <tripinfo id="62" depart="6.00" departLane="e3_0" departPos="5.10" departSpeed="15.00" departDelay="6.00" arrival="5076.00" arrivalLane="m7_0" arrivalPos="170.00" arrivalSpeed="11.73" duration="5070.00" routeLength="49586.78" waitingTime="39.00" waitingCount="38" stopTime="0.00" timeLoss="2501.97" rerouteNo="62" devices="tripinfo_62" vType="krauss" speedFactor="0.89" vaporized=""/>
    <tripinfo id="40" depart="4.00" departLane="m2_0" departPos="5.10" departSpeed="15.00" departDelay="4.00" arrival="5077.00" arrivalLane="m1_0" arrivalPos="180.00" arrivalSpeed="13.14" duration="5073.00" routeLength="50155.25" waitingTime="40.00" waitingCount="39" stopTime="0.00" timeLoss="2877.46" rerouteNo="64" devices="tripinfo_40" vType="krauss" speedFactor="1.10" vaporized=""/>
    <tripinfo id="1" depart="0.00" departLane="e2_0" departPos="5.10" departSpeed="15.00" departDelay="0.00" arrival="5079.00" arrivalLane="m7_0" arrivalPos="170.00" arrivalSpeed="12.10" duration="5079.00" routeLength="49837.43" waitingTime="37.00" waitingCount="31" stopTime="0.00" timeLoss="2702.94" rerouteNo="63" devices="tripinfo_1" vType="krauss" speedFactor="0.97" vaporized=""/>
    <tripinfo id="55" depart="6.00" departLane="m2_0" departPos="5.10" departSpeed="15.00" departDelay="6.00" arrival="5080.00" arrivalLane="m1_0" arrivalPos="180.00" arrivalSpeed="15.60" duration="5074.00" routeLength="50155.25" waitingTime="40.00" waitingCount="40" stopTime="0.00" timeLoss="2979.74" rerouteNo="64" devices="tripinfo_55" vType="krauss" speedFactor="1.22" vaporized=""/>
    <tripinfo id="70" depart="8.00" departLane="m2_0" departPos="5.10" departSpeed="15.00" departDelay="8.00" arrival="5081.00" arrivalLane="m1_0" arrivalPos="180.00" arrivalSpeed="14.03" duration="5073.00" routeLength="50155.25" waitingTime="37.00" waitingCount="36" stopTime="0.00" timeLoss="2869.67" rerouteNo="64" devices="tripinfo_70" vType="krauss" speedFactor="1.10" vaporized=""/>
    <tripinfo id="85" depart="10.00" departLane="m2_0" departPos="5.10" departSpeed="15.00" departDelay="10.00" arrival="5083.00" arrivalLane="m1_0" arrivalPos="180.00" arrivalSpeed="14.61" duration="5073.00" routeLength="50155.25" waitingTime="36.00" waitingCount="33" stopTime="0.00" timeLoss="2843.86" rerouteNo="64" devices="tripinfo_85" vType="krauss" speedFactor="1.07" vaporized=""/>
    <tripinfo id="16" depart="1.00" departLane="e2_0" departPos="5.10" departSpeed="15.00" departDelay="1.00" arrival="5084.00" arrivalLane="m7_0" arrivalPos="170.00" arrivalSpeed="10.49" duration="5083.00" routeLength="49837.43" waitingTime="37.00" waitingCount="33" stopTime="0.00" timeLoss="2597.49" rerouteNo="63" devices="tripinfo_16" vType="krauss" speedFactor="0.92" vaporized=""/>
    <tripinfo id="9" depart="0.00" departLane="m1_0" departPos="5.10" departSpeed="15.00" departDelay="0.00" arrival="5085.00" arrivalLane="m1_0" arrivalPos="180.00" arrivalSpeed="15.03" duration="5085.00" routeLength="50338.78" waitingTime="36.00" waitingCount="32" stopTime="0.00" timeLoss="2921.13" rerouteNo="65" devices="tripinfo_9" vType="krauss" speedFactor="1.15" vaporized=""/>
    <tripinfo id="24" depart="2.00" departLane="m1_0" departPos="5.10" departSpeed="15.00" departDelay="2.00" arrival="5087.00" arrivalLane="m1_0" arrivalPos="180.00" arrivalSpeed="13.77" duration="5085.00" routeLength="50338.78" waitingTime="34.00" waitingCount="32" stopTime="0.00" timeLoss="2844.18" rerouteNo="65" devices="tripinfo_24" vType="krauss" speedFactor="1.07" vaporized=""/>
    <tripinfo id="31" depart="3.00" departLane="e2_0" departPos="5.10" departSpeed="15.00" departDelay="3.00" arrival="5091.00" arrivalLane="m7_0" arrivalPos="170.00" arrivalSpeed="11.23" duration="5088.00" routeLength="49837.43" waitingTime="32.00" waitingCount="30" stopTime="0.00" timeLoss="2704.61" rerouteNo="63" devices="tripinfo_31" vType="krauss" speedFactor="0.97" vaporized=""/>
    <tripinfo id="46" depart="5.00" departLane="e2_0" departPos="5.10" departSpeed="15.00" departDelay="5.00" arrival="5093.00" arrivalLane="m7_0" arrivalPos="170.00" arrivalSpeed="12.26" duration="5088.00" routeLength="49837.43" waitingTime="45.00" waitingCount="45" stopTime="0.00" timeLoss="2859.28" rerouteNo="63" devices="tripinfo_46" vType="krauss" speedFactor="1.06" vaporized=""/>
    <tripinfo id="61" depart="6.00" departLane="e2_0" departPos="5.10" departSpeed="15.00" departDelay="6.00" arrival="5096.00" arrivalLane="m7_0" arrivalPos="170.00" arrivalSpeed="12.64" duration="5090.00" routeLength="49837.43" waitingTime="35.00" waitingCount="35" stopTime="0.00" timeLoss="2826.63" rerouteNo="63" devices="tripinfo_61" vType="krauss" speedFactor="1.03" vaporized=""/>
    <tripinfo id="76" depart="8.00" departLane="e2_0" departPos="5.10" departSpeed="15.00" departDelay="8.00" arrival="5101.00" arrivalLane="m7_0" arrivalPos="170.00" arrivalSpeed="12.47" duration="5093.00" routeLength="49837.43" waitingTime="40.00" waitingCount="37" stopTime="0.00" timeLoss="2609.92" rerouteNo="63" devices="tripinfo_76" vType="krauss" speedFactor="0.93" vaporized=""/>
    <tripinfo id="91" depart="10.00" departLane="e2_0" departPos="5.10" departSpeed="15.00" departDelay="10.00" arrival="5103.00" arrivalLane="m7_0" arrivalPos="170.00" arrivalSpeed="12.55" duration="5093.00" routeLength="49837.43" waitingTime="44.00" waitingCount="42" stopTime="0.00" timeLoss="2834.91" rerouteNo="63" devices="tripinfo_91" vType="krauss" speedFactor="1.04" vaporized=""/>
    <tripinfo id="0" depart="0.00" departLane="e1_0" departPos="5.10" departSpeed="15.00" departDelay="0.00" arrival="5115.00" arrivalLane="m7_0" arrivalPos="170.00" arrivalSpeed="11.83" duration="5115.00" routeLength="50145.76" waitingTime="39.00" waitingCount="37" stopTime="0.00" timeLoss="2420.55" rerouteNo="64" devices="tripinfo_0" vType="krauss" speedFactor="0.86" vaporized=""/>
    <tripinfo id="15" depart="1.00" departLane="e1_0" departPos="5.10" departSpeed="15.00" departDelay="1.00" arrival="5116.00" arrivalLane="m7_0" arrivalPos="170.00" arrivalSpeed="13.32" duration="5115.00" routeLength="50145.76" waitingTime="28.00" waitingCount="25" stopTime="0.00" timeLoss="2904.02" rerouteNo="64" devices="tripinfo_15" vType="krauss" speedFactor="1.09" vaporized=""/>
    <tripinfo id="30" depart="2.00" departLane="e1_0" departPos="5.10" departSpeed="15.00" departDelay="2.00" arrival="5119.00" arrivalLane="m7_0" arrivalPos="170.00" arrivalSpeed="12.83" duration="5117.00" routeLength="50145.76" waitingTime="36.00" waitingCount="34" stopTime="0.00" timeLoss="2797.16" rerouteNo="64" devices="tripinfo_30" vType="krauss" speedFactor="1.00" vaporized=""/>
    <tripinfo id="45" depart="4.00" departLane="e1_0" departPos="5.10" departSpeed="15.00" departDelay="4.00" arrival="5121.00" arrivalLane="m7_0" arrivalPos="170.00" arrivalSpeed="12.67" duration="5117.00" routeLength="50145.76" waitingTime="37.00" waitingCount="34" stopTime="0.00" timeLoss="2867.53" rerouteNo="64" devices="tripinfo_45" vType="krauss" speedFactor="1.05" vaporized=""/>
    <tripinfo id="60" depart="5.00" departLane="e1_0" departPos="5.10" departSpeed="15.00" departDelay="5.00" arrival="5125.00" arrivalLane="m7_0" arrivalPos="170.00" arrivalSpeed="14.07" duration="5120.00" routeLength="50145.76" waitingTime="40.00" waitingCount="39" stopTime="0.00" timeLoss="2843.33" rerouteNo="64" devices="tripinfo_60" vType="krauss" speedFactor="1.03" vaporized=""/>
    <tripinfo id="75" depart="7.00" departLane="e1_0" departPos="5.10" departSpeed="15.00" departDelay="7.00" arrival="5128.00" arrivalLane="m7_0" arrivalPos="170.00" arrivalSpeed="13.37" duration="5121.00" routeLength="50145.76" waitingTime="31.00" waitingCount="31" stopTime="0.00" timeLoss="2821.97" rerouteNo="64" devices="tripinfo_75" vType="krauss" speedFactor="1.01" vaporized=""/>
    <tripinfo id="90" depart="8.00" departLane="e1_0" departPos="5.10" departSpeed="15.00" departDelay="8.00" arrival="5135.00" arrivalLane="m7_0" arrivalPos="170.00" arrivalSpeed="11.72" duration="5127.00" routeLength="50145.76" waitingTime="44.00" waitingCount="40" stopTime="0.00" timeLoss="2668.25" rerouteNo="64" devices="tripinfo_90" vType="krauss" speedFactor="0.94" vaporized=""/>
    <tripinfo id="77" depart="35.00" departLane="e3_0" departPos="5.10" departSpeed="15.00" departDelay="35.00" arrival="5136.00" arrivalLane="m7_0" arrivalPos="170.00" arrivalSpeed="14.00" duration="5101.00" routeLength="49586.78" waitingTime="50.00" waitingCount="47" stopTime="0.00" timeLoss="2825.99" rerouteNo="62" devices="tripinfo_77" vType="krauss" speedFactor="1.01" vaporized=""/>
    <tripinfo id="92" depart="36.00" departLane="e3_0" departPos="5.10" departSpeed="15.00" departDelay="36.00" arrival="5138.00" arrivalLane="m7_0" arrivalPos="170.00" arrivalSpeed="13.57" duration="5102.00" routeLength="49586.78" waitingTime="42.00" waitingCount="42" stopTime="0.00" timeLoss="2961.90" rerouteNo="62" devices="tripinfo_92" vType="krauss" speedFactor="1.14" vaporized=""/>
    <tripinfo id="78" depart="52.00" departLane="e4_0" departPos="5.10" departSpeed="15.00" departDelay="52.00" arrival="5140.00" arrivalLane="m7_0" arrivalPos="170.00" arrivalSpeed="13.23" duration="5088.00" routeLength="49335.82" waitingTime="51.00" waitingCount="48" stopTime="0.00" timeLoss="2907.14" rerouteNo="62" devices="tripinfo_78" vType="krauss" speedFactor="1.09" vaporized=""/>
    <tripinfo id="39" depart="4.00" departLane="m1_0" departPos="5.10" departSpeed="15.00" departDelay="4.00" arrival="5141.00" arrivalLane="e1_1" arrivalPos="300.00" arrivalSpeed="27.86" duration="5137.00" routeLength="51723.47" waitingTime="39.00" waitingCount="38" stopTime="0.00" timeLoss="2872.41" rerouteNo="64" devices="tripinfo_39" vType="krauss" speedFactor="1.09" vaporized=""/>
    <tripinfo id="93" depart="54.00" departLane="e4_0" departPos="5.10" departSpeed="15.00" departDelay="54.00" arrival="5147.00" arrivalLane="m7_0" arrivalPos="170.00" arrivalSpeed="14.07" duration="5093.00" routeLength="49335.82" waitingTime="39.00" waitingCount="37" stopTime="0.00" timeLoss="2848.04" rerouteNo="62" devices="tripinfo_93" vType="krauss" speedFactor="1.04" vaporized=""/>
    <tripinfo id="13" depart="0.00" departLane="m5_0" departPos="5.10" departSpeed="15.00" departDelay="0.00" arrival="5148.00" arrivalLane="m7_0" arrivalPos="170.00" arrivalSpeed="14.56" duration="5148.00" routeLength="50692.95" waitingTime="54.00" waitingCount="48" stopTime="0.00" timeLoss="2881.97" rerouteNo="65" devices="tripinfo_13" vType="krauss" speedFactor="1.07" vaporized=""/>
    <tripinfo id="54" depart="6.00" departLane="m1_0" departPos="5.10" departSpeed="15.00" departDelay="6.00" arrival="5148.00" arrivalLane="e1_1" arrivalPos="300.00" arrivalSpeed="27.90" duration="5142.00" routeLength="51723.47" waitingTime="36.00" waitingCount="33" stopTime="0.00" timeLoss="2859.67" rerouteNo="64" devices="tripinfo_54" vType="krauss" speedFactor="1.07" vaporized=""/>
    <tripinfo id="28" depart="2.00" departLane="m5_0" departPos="5.10" departSpeed="15.00" departDelay="2.00" arrival="5150.00" arrivalLane="m7_0" arrivalPos="170.00" arrivalSpeed="14.26" duration="5148.00" routeLength="50692.95" waitingTime="45.00" waitingCount="41" stopTime="0.00" timeLoss="2922.47" rerouteNo="65" devices="tripinfo_28" vType="krauss" speedFactor="1.11" vaporized=""/>
    <tripinfo id="14" depart="0.00" departLane="e10_0" departPos="5.10" departSpeed="15.00" departDelay="0.00" arrival="5153.00" arrivalLane="e1_1" arrivalPos="300.00" arrivalSpeed="27.78" duration="5153.00" routeLength="51982.63" waitingTime="26.00" waitingCount="26" stopTime="0.00" timeLoss="2879.81" rerouteNo="65" devices="tripinfo_14" vType="krauss" speedFactor="1.09" vaporized=""/>
    <tripinfo id="43" depart="4.00" departLane="m5_0" departPos="5.10" departSpeed="15.00" departDelay="4.00" arrival="5154.00" arrivalLane="m7_0" arrivalPos="170.00" arrivalSpeed="14.36" duration="5150.00" routeLength="50692.95" waitingTime="40.00" waitingCount="39" stopTime="0.00" timeLoss="2886.02" rerouteNo="65" devices="tripinfo_43" vType="krauss" speedFactor="1.07" vaporized=""/>
    <tripinfo id="58" depart="7.00" departLane="m5_0" departPos="5.10" departSpeed="15.00" departDelay="7.00" arrival="5159.00" arrivalLane="m7_0" arrivalPos="170.00" arrivalSpeed="14.03" duration="5152.00" routeLength="50692.95" waitingTime="41.00" waitingCount="39" stopTime="0.00" timeLoss="2887.30" rerouteNo="65" devices="tripinfo_58" vType="krauss" speedFactor="1.07" vaporized=""/>
    <tripinfo id="73" depart="9.00" departLane="m5_0" departPos="5.10" departSpeed="15.00" departDelay="9.00" arrival="5163.00" arrivalLane="m7_0" arrivalPos="170.00" arrivalSpeed="14.69" duration="5154.00" routeLength="50692.95" waitingTime="42.00" waitingCount="40" stopTime="0.00" timeLoss="2889.27" rerouteNo="65" devices="tripinfo_73" vType="krauss" speedFactor="1.07" vaporized=""/>
    <tripinfo id="29" depart="1.00" departLane="e10_0" departPos="5.10" departSpeed="15.00" departDelay="1.00" arrival="5166.00" arrivalLane="e1_1" arrivalPos="300.00" arrivalSpeed="22.88" duration="5165.00" routeLength="51982.63" waitingTime="29.00" waitingCount="28" stopTime="0.00" timeLoss="2299.27" rerouteNo="65" devices="tripinfo_29" vType="krauss" speedFactor="0.83" vaporized=""/>
    <tripinfo id="88" depart="11.00" departLane="m5_0" departPos="5.10" departSpeed="15.00" departDelay="11.00" arrival="5166.00" arrivalLane="m7_0" arrivalPos="170.00" arrivalSpeed="13.73" duration="5155.00" routeLength="50692.95" waitingTime="50.00" waitingCount="48" stopTime="0.00" timeLoss="2950.76" rerouteNo="65" devices="tripinfo_88" vType="krauss" speedFactor="1.13" vaporized=""/>
    <tripinfo id="44" depart="3.00" departLane="e10_0" departPos="5.10" departSpeed="15.00" departDelay="3.00" arrival="5167.00" arrivalLane="e1_1" arrivalPos="300.00" arrivalSpeed="25.60" duration="5164.00" routeLength="51982.63" waitingTime="22.00" waitingCount="22" stopTime="0.00" timeLoss="2983.06" rerouteNo="65" devices="tripinfo_44" vType="krauss" speedFactor="1.19" vaporized=""/>
    <tripinfo id="84" depart="1894.00" departLane="m1_0" departPos="5.10" departSpeed="15.00" departDelay="1894.00" arrival="5169.00" arrivalLane="e1_1" arrivalPos="300.00" arrivalSpeed="28.09" duration="3275.00" routeLength="32429.67" waitingTime="30.00" waitingCount="27" stopTime="0.00" timeLoss="1878.54" rerouteNo="39" devices="tripinfo_84" vType="krauss" speedFactor="1.12" vaporized=""/>
    <tripinfo id="59" depart="5.00" departLane="e10_0" departPos="5.10" departSpeed="15.00" departDelay="5.00" arrival="5170.00" arrivalLane="e1_1" arrivalPos="300.00" arrivalSpeed="26.16" duration="5165.00" routeLength="51982.63" waitingTime="28.00" waitingCount="28" stopTime="0.00" timeLoss="2963.22" rerouteNo="65" devices="tripinfo_59" vType="krauss" speedFactor="1.16" vaporized=""/>
    <tripinfo id="12" depart="0.00" departLane="m4_0" departPos="5.10" departSpeed="15.00" departDelay="0.00" arrival="5171.00" arrivalLane="m7_0" arrivalPos="170.00" arrivalSpeed="14.59" duration="5171.00" routeLength="50874.10" waitingTime="49.00" waitingCount="46" stopTime="0.00" timeLoss="2889.42" rerouteNo="65" devices="tripinfo_12" vType="krauss" speedFactor="1.07" vaporized=""/>
    <tripinfo id="27" depart="2.00" departLane="m4_0" departPos="5.10" departSpeed="15.00" departDelay="2.00" arrival="5174.00" arrivalLane="m7_0" arrivalPos="170.00" arrivalSpeed="12.88" duration="5172.00" routeLength="50874.10" waitingTime="41.00" waitingCount="38" stopTime="0.00" timeLoss="2894.97" rerouteNo="65" devices="tripinfo_27" vType="krauss" speedFactor="1.07" vaporized=""/>
    <tripinfo id="42" depart="4.00" departLane="m4_0" departPos="5.10" departSpeed="15.00" departDelay="4.00" arrival="5176.00" arrivalLane="m7_0" arrivalPos="170.00" arrivalSpeed="16.52" duration="5172.00" routeLength="50874.10" waitingTime="40.00" waitingCount="37" stopTime="0.00" timeLoss="3043.68" rerouteNo="65" devices="tripinfo_42" vType="krauss" speedFactor="1.23" vaporized=""/>
    <tripinfo id="74" depart="6.00" departLane="e10_0" departPos="5.10" departSpeed="15.00" departDelay="6.00" arrival="5177.00" arrivalLane="e1_1" arrivalPos="300.00" arrivalSpeed="29.31" duration="5171.00" routeLength="51982.63" waitingTime="32.00" waitingCount="31" stopTime="0.00" timeLoss="2898.95" rerouteNo="65" devices="tripinfo_74" vType="krauss" speedFactor="1.09" vaporized=""/>
    <tripinfo id="69" depart="1042.00" departLane="m1_0" departPos="5.10" departSpeed="15.00" departDelay="1042.00" arrival="5181.00" arrivalLane="m7_0" arrivalPos="170.00" arrivalSpeed="15.02" duration="4139.00" routeLength="39843.26" waitingTime="30.00" waitingCount="29" stopTime="0.00" timeLoss="2372.53" rerouteNo="51" devices="tripinfo_69" vType="krauss" speedFactor="1.11" vaporized=""/>